SIRIUS 7.6.1, git hash: https://api.github.com/repos/electronic-structure/SIRIUS/git/ref/tags/v7.6.1
 DBCSR| CPU Multiplication driver                                           XSMM (U)
 DBCSR| Multrec recursion limit                                              512 (U)
 DBCSR| Multiplication stack size                                           1000 (D)
 DBCSR| Maximum elements for images                                    UNLIMITED (U)
 DBCSR| Multiplicative factor virtual images                                   1 (U)
 DBCSR| Use multiplication densification                                       T (D)
 DBCSR| Multiplication size stacks                                             3 (U)
 DBCSR| Use memory pool for CPU allocation                                     F (U)
 DBCSR| Number of 3D layers                                               SINGLE (U)
 DBCSR| Use MPI memory allocation                                              F (U)
 DBCSR| Use RMA algorithm                                                      F (U)
 DBCSR| Use Communication thread                                               T (U)
 DBCSR| Communication thread load                                             30 (D)
 DBCSR| MPI: My process id                                                     0
 DBCSR| MPI: Number of processes                                              32
 DBCSR| OMP: Current number of threads                                        16
 DBCSR| OMP: Max number of threads                                            16
 DBCSR| Split modifier for TAS multiplication algorithm                  1.0E+00 (U)


  **** **** ******  **  PROGRAM STARTED AT               2025-05-07 12:23:48.013
 ***** ** ***  *** **   PROGRAM STARTED ON                              n2cn0657
 **    ****   ******    PROGRAM STARTED BY                              metdyn06
 ***** **    ** ** **   PROGRAM PROCESS ID                               2681922
  **** **  *******  **  PROGRAM STARTED IN /scratch/hpc-prf-metdyn/metdyn06_Bibe
                                           k/Research/cp2k/bi2te3_final/KGKp/bas
                                           is-set-test/basis-molopt-uzh/dzvp

 CP2K| version string:                 CP2K version 2025.1 (Development Version)
 CP2K| source code revision number:                                  git:8da3cac
 CP2K| cp2kflags: omp libint fftw3 libxc libgrpp elpa parallel scalapack mpi_f08
 CP2K|             cosma xsmm plumed2 spglib sirius libvori libbqb libvdwxc hdf5
 CP2K| is freely available from                            https://www.cp2k.org/
 CP2K| Program compiled at                         Thu Apr  3 15:24:46 CEST 2025
 CP2K| Program compiled on                                              n2login6
 CP2K| Program compiled for                                                local
 CP2K| Data directory path    /opt/software/pc2/EB-SW/software/CP2K/2024.1-foss-
 CP2K| Input file name                                                  cp2k.inp

 GLOBAL| Force Environment number                                              1
 GLOBAL| Basis set file name            /pc2/groups/hpc-prf-metdyn/metdyn06_Bibe
 GLOBAL| Potential file name            /pc2/groups/hpc-prf-metdyn/metdyn06_Bibe
 GLOBAL| MM Potential file name                                     MM_POTENTIAL
 GLOBAL| Coordinate file name                                      __STD_INPUT__
 GLOBAL| Method name                                                        CP2K
 GLOBAL| Project name                                                     Bi2Te3
 GLOBAL| Run type                                                         ENERGY
 GLOBAL| FFT library                                                       FFTW3
 GLOBAL| Diagonalization library                                            ELPA
 GLOBAL| DGEMM library                                                      BLAS
 GLOBAL| Minimum number of eigenvectors for ELPA usage                        16
 GLOBAL| Orthonormality check for eigenvectors                          DISABLED
 GLOBAL| Matrix multiplication library                                     COSMA
 GLOBAL| All-to-all communication in single precision                          F
 GLOBAL| FFTs using library dependent lengths                                  T
 GLOBAL| Grid backend                                                       AUTO
 GLOBAL| Global print level                                               MEDIUM
 GLOBAL| MPI I/O enabled                                                       T
 GLOBAL| Total number of message passing processes                            32
 GLOBAL| Number of threads for this process                                   16
 GLOBAL| This output is from process                                           0
 GLOBAL| OpenMP stack size per thread (OMP_STACKSIZE)                    default
 GLOBAL| CPU model name                          AMD EPYC 7763 64-Core Processor
 GLOBAL| CPUID                                                              1002

 MEMORY| system memory details [Kb]
 MEMORY|                        rank 0           min           max       average
 MEMORY| MemTotal            263899264     263899260     263899264     263899262
 MEMORY| MemFree             248390904     244327932     248390904     246261646
 MEMORY| Buffers                129732        129068        212380        166872
 MEMORY| Cached                6448216       6448216       9575324       8078206
 MEMORY| Slab                  2237972       2237972       2746792       2497149
 MEMORY| SReclaimable           373832        373832        561336        471258
 MEMORY| MemLikelyFree       255342684     254660900     255342684     254977982


 *** Fundamental physical constants (SI units) ***

 *** Literature: B. J. Mohr and B. N. Taylor,
 ***             CODATA recommended values of the fundamental physical
 ***             constants: 2006, Web Version 5.1
 ***             http://physics.nist.gov/constants

 Speed of light in vacuum [m/s]                             2.99792458000000E+08
 Magnetic constant or permeability of vacuum [N/A**2]       1.25663706143592E-06
 Electric constant or permittivity of vacuum [F/m]          8.85418781762039E-12
 Planck constant (h) [J*s]                                  6.62606896000000E-34
 Planck constant (h-bar) [J*s]                              1.05457162825177E-34
 Elementary charge [C]                                      1.60217648700000E-19
 Electron mass [kg]                                         9.10938215000000E-31
 Electron g factor [ ]                                     -2.00231930436220E+00
 Proton mass [kg]                                           1.67262163700000E-27
 Fine-structure constant                                    7.29735253760000E-03
 Rydberg constant [1/m]                                     1.09737315685270E+07
 Avogadro constant [1/mol]                                  6.02214179000000E+23
 Boltzmann constant [J/K]                                   1.38065040000000E-23
 Atomic mass unit [kg]                                      1.66053878200000E-27
 Bohr radius [m]                                            5.29177208590000E-11

 *** Conversion factors ***

 [u] -> [a.u.]                                              1.82288848426455E+03
 [Angstrom] -> [Bohr] = [a.u.]                              1.88972613288564E+00
 [a.u.] = [Bohr] -> [Angstrom]                              5.29177208590000E-01
 [a.u.] -> [s]                                              2.41888432650478E-17
 [a.u.] -> [fs]                                             2.41888432650478E-02
 [a.u.] -> [J]                                              4.35974393937059E-18
 [a.u.] -> [N]                                              8.23872205491840E-08
 [a.u.] -> [K]                                              3.15774647902944E+05
 [a.u.] -> [kJ/mol]                                         2.62549961709828E+03
 [a.u.] -> [kcal/mol]                                       6.27509468713739E+02
 [a.u.] -> [Pa]                                             2.94210107994716E+13
 [a.u.] -> [bar]                                            2.94210107994716E+08
 [a.u.] -> [atm]                                            2.90362800883016E+08
 [a.u.] -> [eV]                                             2.72113838565563E+01
 [a.u.] -> [Hz]                                             6.57968392072181E+15
 [a.u.] -> [1/cm] (wave numbers)                            2.19474631370540E+05
 [a.u./Bohr**2] -> [1/cm]                                   5.14048714338585E+03
 

 CELL_TOP| Volume [angstrom^3]:                                      2028.489998
 CELL_TOP| Vector a [angstrom     4.386     0.000     0.000   |a| =     4.386002
 CELL_TOP| Vector b [angstrom    -2.193     3.798     0.000   |b| =     4.386002
 CELL_TOP| Vector c [angstrom    -0.000     0.000   121.760   |c| =   121.760000
 CELL_TOP| Angle (b,c), alpha [degree]:                                90.000000
 CELL_TOP| Angle (a,c), beta  [degree]:                                90.000000
 CELL_TOP| Angle (a,b), gamma [degree]:                               120.000000
 CELL_TOP| Numerically orthorhombic:                                          NO
 CELL_TOP| Periodicity                                                        XY

 GENERATE|  Preliminary Number of Bonds generated:                             0
 GENERATE|  Achieved consistency in connectivity generation.

 CELL| Volume [angstrom^3]:                                          2028.489998
 CELL| Vector a [angstrom]:       4.386     0.000     0.000   |a| =     4.386002
 CELL| Vector b [angstrom]:      -2.193     3.798     0.000   |b| =     4.386002
 CELL| Vector c [angstrom]:      -0.000     0.000   121.760   |c| =   121.760000
 CELL| Angle (b,c), alpha [degree]:                                    90.000000
 CELL| Angle (a,c), beta  [degree]:                                    90.000000
 CELL| Angle (a,b), gamma [degree]:                                   120.000000
 CELL| Numerically orthorhombic:                                              NO
 CELL| Periodicity                                                            XY

 CELL_REF| Volume [angstrom^3]:                                      2028.489998
 CELL_REF| Vector a [angstrom     4.386     0.000     0.000   |a| =     4.386002
 CELL_REF| Vector b [angstrom    -2.193     3.798     0.000   |b| =     4.386002
 CELL_REF| Vector c [angstrom    -0.000     0.000   121.760   |c| =   121.760000
 CELL_REF| Angle (b,c), alpha [degree]:                                90.000000
 CELL_REF| Angle (a,c), beta  [degree]:                                90.000000
 CELL_REF| Angle (a,b), gamma [degree]:                               120.000000
 CELL_REF| Numerically orthorhombic:                                          NO
 CELL_REF| Periodicity                                                        XY

 *******************************************************************************
                                    Kpoints
 *******************************************************************************
 BRILLOUIN| K-point scheme                                        Monkhorst-Pack
 BRILLOUIN| K-Point grid                                            24   24    1
 BRILLOUIN| Accuracy in Symmetry determination                      0.100000E-05
 BRILLOUIN| K-Point point group symmetrization                               OFF
 BRILLOUIN| Wavefunction type                                            COMPLEX
 BRILLOUIN| List of Kpoints [2 Pi/Bohr]                                      288
 BRILLOUIN| Number           Weight            X              Y              Z
 BRILLOUIN|     1           0.00347       -0.47917       -0.47917        0.00000
 BRILLOUIN|     2           0.00347       -0.47917       -0.43750        0.00000
 BRILLOUIN|     3           0.00347       -0.47917       -0.39583        0.00000
 BRILLOUIN|     4           0.00347       -0.47917       -0.35417        0.00000
 BRILLOUIN|     5           0.00347       -0.47917       -0.31250        0.00000
 BRILLOUIN|     6           0.00347       -0.47917       -0.27083        0.00000
 BRILLOUIN|     7           0.00347       -0.47917       -0.22917        0.00000
 BRILLOUIN|     8           0.00347       -0.47917       -0.18750        0.00000
 BRILLOUIN|     9           0.00347       -0.47917       -0.14583        0.00000
 BRILLOUIN|    10           0.00347       -0.47917       -0.10417        0.00000
 BRILLOUIN|    11           0.00347       -0.47917       -0.06250        0.00000
 BRILLOUIN|    12           0.00347       -0.47917       -0.02083        0.00000
 BRILLOUIN|    13           0.00347       -0.47917        0.02083        0.00000
 BRILLOUIN|    14           0.00347       -0.47917        0.06250        0.00000
 BRILLOUIN|    15           0.00347       -0.47917        0.10417        0.00000
 BRILLOUIN|    16           0.00347       -0.47917        0.14583        0.00000
 BRILLOUIN|    17           0.00347       -0.47917        0.18750        0.00000
 BRILLOUIN|    18           0.00347       -0.47917        0.22917        0.00000
 BRILLOUIN|    19           0.00347       -0.47917        0.27083        0.00000
 BRILLOUIN|    20           0.00347       -0.47917        0.31250        0.00000
 BRILLOUIN|    21           0.00347       -0.47917        0.35417        0.00000
 BRILLOUIN|    22           0.00347       -0.47917        0.39583        0.00000
 BRILLOUIN|    23           0.00347       -0.47917        0.43750        0.00000
 BRILLOUIN|    24           0.00347       -0.47917        0.47917        0.00000
 BRILLOUIN|    25           0.00347       -0.43750       -0.47917        0.00000
 BRILLOUIN|    26           0.00347       -0.43750       -0.43750        0.00000
 BRILLOUIN|    27           0.00347       -0.43750       -0.39583        0.00000
 BRILLOUIN|    28           0.00347       -0.43750       -0.35417        0.00000
 BRILLOUIN|    29           0.00347       -0.43750       -0.31250        0.00000
 BRILLOUIN|    30           0.00347       -0.43750       -0.27083        0.00000
 BRILLOUIN|    31           0.00347       -0.43750       -0.22917        0.00000
 BRILLOUIN|    32           0.00347       -0.43750       -0.18750        0.00000
 BRILLOUIN|    33           0.00347       -0.43750       -0.14583        0.00000
 BRILLOUIN|    34           0.00347       -0.43750       -0.10417        0.00000
 BRILLOUIN|    35           0.00347       -0.43750       -0.06250        0.00000
 BRILLOUIN|    36           0.00347       -0.43750       -0.02083        0.00000
 BRILLOUIN|    37           0.00347       -0.43750        0.02083        0.00000
 BRILLOUIN|    38           0.00347       -0.43750        0.06250        0.00000
 BRILLOUIN|    39           0.00347       -0.43750        0.10417        0.00000
 BRILLOUIN|    40           0.00347       -0.43750        0.14583        0.00000
 BRILLOUIN|    41           0.00347       -0.43750        0.18750        0.00000
 BRILLOUIN|    42           0.00347       -0.43750        0.22917        0.00000
 BRILLOUIN|    43           0.00347       -0.43750        0.27083        0.00000
 BRILLOUIN|    44           0.00347       -0.43750        0.31250        0.00000
 BRILLOUIN|    45           0.00347       -0.43750        0.35417        0.00000
 BRILLOUIN|    46           0.00347       -0.43750        0.39583        0.00000
 BRILLOUIN|    47           0.00347       -0.43750        0.43750        0.00000
 BRILLOUIN|    48           0.00347       -0.43750        0.47917        0.00000
 BRILLOUIN|    49           0.00347       -0.39583       -0.47917        0.00000
 BRILLOUIN|    50           0.00347       -0.39583       -0.43750        0.00000
 BRILLOUIN|    51           0.00347       -0.39583       -0.39583        0.00000
 BRILLOUIN|    52           0.00347       -0.39583       -0.35417        0.00000
 BRILLOUIN|    53           0.00347       -0.39583       -0.31250        0.00000
 BRILLOUIN|    54           0.00347       -0.39583       -0.27083        0.00000
 BRILLOUIN|    55           0.00347       -0.39583       -0.22917        0.00000
 BRILLOUIN|    56           0.00347       -0.39583       -0.18750        0.00000
 BRILLOUIN|    57           0.00347       -0.39583       -0.14583        0.00000
 BRILLOUIN|    58           0.00347       -0.39583       -0.10417        0.00000
 BRILLOUIN|    59           0.00347       -0.39583       -0.06250        0.00000
 BRILLOUIN|    60           0.00347       -0.39583       -0.02083        0.00000
 BRILLOUIN|    61           0.00347       -0.39583        0.02083        0.00000
 BRILLOUIN|    62           0.00347       -0.39583        0.06250        0.00000
 BRILLOUIN|    63           0.00347       -0.39583        0.10417        0.00000
 BRILLOUIN|    64           0.00347       -0.39583        0.14583        0.00000
 BRILLOUIN|    65           0.00347       -0.39583        0.18750        0.00000
 BRILLOUIN|    66           0.00347       -0.39583        0.22917        0.00000
 BRILLOUIN|    67           0.00347       -0.39583        0.27083        0.00000
 BRILLOUIN|    68           0.00347       -0.39583        0.31250        0.00000
 BRILLOUIN|    69           0.00347       -0.39583        0.35417        0.00000
 BRILLOUIN|    70           0.00347       -0.39583        0.39583        0.00000
 BRILLOUIN|    71           0.00347       -0.39583        0.43750        0.00000
 BRILLOUIN|    72           0.00347       -0.39583        0.47917        0.00000
 BRILLOUIN|    73           0.00347       -0.35417       -0.47917        0.00000
 BRILLOUIN|    74           0.00347       -0.35417       -0.43750        0.00000
 BRILLOUIN|    75           0.00347       -0.35417       -0.39583        0.00000
 BRILLOUIN|    76           0.00347       -0.35417       -0.35417        0.00000
 BRILLOUIN|    77           0.00347       -0.35417       -0.31250        0.00000
 BRILLOUIN|    78           0.00347       -0.35417       -0.27083        0.00000
 BRILLOUIN|    79           0.00347       -0.35417       -0.22917        0.00000
 BRILLOUIN|    80           0.00347       -0.35417       -0.18750        0.00000
 BRILLOUIN|    81           0.00347       -0.35417       -0.14583        0.00000
 BRILLOUIN|    82           0.00347       -0.35417       -0.10417        0.00000
 BRILLOUIN|    83           0.00347       -0.35417       -0.06250        0.00000
 BRILLOUIN|    84           0.00347       -0.35417       -0.02083        0.00000
 BRILLOUIN|    85           0.00347       -0.35417        0.02083        0.00000
 BRILLOUIN|    86           0.00347       -0.35417        0.06250        0.00000
 BRILLOUIN|    87           0.00347       -0.35417        0.10417        0.00000
 BRILLOUIN|    88           0.00347       -0.35417        0.14583        0.00000
 BRILLOUIN|    89           0.00347       -0.35417        0.18750        0.00000
 BRILLOUIN|    90           0.00347       -0.35417        0.22917        0.00000
 BRILLOUIN|    91           0.00347       -0.35417        0.27083        0.00000
 BRILLOUIN|    92           0.00347       -0.35417        0.31250        0.00000
 BRILLOUIN|    93           0.00347       -0.35417        0.35417        0.00000
 BRILLOUIN|    94           0.00347       -0.35417        0.39583        0.00000
 BRILLOUIN|    95           0.00347       -0.35417        0.43750        0.00000
 BRILLOUIN|    96           0.00347       -0.35417        0.47917        0.00000
 BRILLOUIN|    97           0.00347       -0.31250       -0.47917        0.00000
 BRILLOUIN|    98           0.00347       -0.31250       -0.43750        0.00000
 BRILLOUIN|    99           0.00347       -0.31250       -0.39583        0.00000
 BRILLOUIN|   100           0.00347       -0.31250       -0.35417        0.00000
 BRILLOUIN|   101           0.00347       -0.31250       -0.31250        0.00000
 BRILLOUIN|   102           0.00347       -0.31250       -0.27083        0.00000
 BRILLOUIN|   103           0.00347       -0.31250       -0.22917        0.00000
 BRILLOUIN|   104           0.00347       -0.31250       -0.18750        0.00000
 BRILLOUIN|   105           0.00347       -0.31250       -0.14583        0.00000
 BRILLOUIN|   106           0.00347       -0.31250       -0.10417        0.00000
 BRILLOUIN|   107           0.00347       -0.31250       -0.06250        0.00000
 BRILLOUIN|   108           0.00347       -0.31250       -0.02083        0.00000
 BRILLOUIN|   109           0.00347       -0.31250        0.02083        0.00000
 BRILLOUIN|   110           0.00347       -0.31250        0.06250        0.00000
 BRILLOUIN|   111           0.00347       -0.31250        0.10417        0.00000
 BRILLOUIN|   112           0.00347       -0.31250        0.14583        0.00000
 BRILLOUIN|   113           0.00347       -0.31250        0.18750        0.00000
 BRILLOUIN|   114           0.00347       -0.31250        0.22917        0.00000
 BRILLOUIN|   115           0.00347       -0.31250        0.27083        0.00000
 BRILLOUIN|   116           0.00347       -0.31250        0.31250        0.00000
 BRILLOUIN|   117           0.00347       -0.31250        0.35417        0.00000
 BRILLOUIN|   118           0.00347       -0.31250        0.39583        0.00000
 BRILLOUIN|   119           0.00347       -0.31250        0.43750        0.00000
 BRILLOUIN|   120           0.00347       -0.31250        0.47917        0.00000
 BRILLOUIN|   121           0.00347       -0.27083       -0.47917        0.00000
 BRILLOUIN|   122           0.00347       -0.27083       -0.43750        0.00000
 BRILLOUIN|   123           0.00347       -0.27083       -0.39583        0.00000
 BRILLOUIN|   124           0.00347       -0.27083       -0.35417        0.00000
 BRILLOUIN|   125           0.00347       -0.27083       -0.31250        0.00000
 BRILLOUIN|   126           0.00347       -0.27083       -0.27083        0.00000
 BRILLOUIN|   127           0.00347       -0.27083       -0.22917        0.00000
 BRILLOUIN|   128           0.00347       -0.27083       -0.18750        0.00000
 BRILLOUIN|   129           0.00347       -0.27083       -0.14583        0.00000
 BRILLOUIN|   130           0.00347       -0.27083       -0.10417        0.00000
 BRILLOUIN|   131           0.00347       -0.27083       -0.06250        0.00000
 BRILLOUIN|   132           0.00347       -0.27083       -0.02083        0.00000
 BRILLOUIN|   133           0.00347       -0.27083        0.02083        0.00000
 BRILLOUIN|   134           0.00347       -0.27083        0.06250        0.00000
 BRILLOUIN|   135           0.00347       -0.27083        0.10417        0.00000
 BRILLOUIN|   136           0.00347       -0.27083        0.14583        0.00000
 BRILLOUIN|   137           0.00347       -0.27083        0.18750        0.00000
 BRILLOUIN|   138           0.00347       -0.27083        0.22917        0.00000
 BRILLOUIN|   139           0.00347       -0.27083        0.27083        0.00000
 BRILLOUIN|   140           0.00347       -0.27083        0.31250        0.00000
 BRILLOUIN|   141           0.00347       -0.27083        0.35417        0.00000
 BRILLOUIN|   142           0.00347       -0.27083        0.39583        0.00000
 BRILLOUIN|   143           0.00347       -0.27083        0.43750        0.00000
 BRILLOUIN|   144           0.00347       -0.27083        0.47917        0.00000
 BRILLOUIN|   145           0.00347       -0.22917       -0.47917        0.00000
 BRILLOUIN|   146           0.00347       -0.22917       -0.43750        0.00000
 BRILLOUIN|   147           0.00347       -0.22917       -0.39583        0.00000
 BRILLOUIN|   148           0.00347       -0.22917       -0.35417        0.00000
 BRILLOUIN|   149           0.00347       -0.22917       -0.31250        0.00000
 BRILLOUIN|   150           0.00347       -0.22917       -0.27083        0.00000
 BRILLOUIN|   151           0.00347       -0.22917       -0.22917        0.00000
 BRILLOUIN|   152           0.00347       -0.22917       -0.18750        0.00000
 BRILLOUIN|   153           0.00347       -0.22917       -0.14583        0.00000
 BRILLOUIN|   154           0.00347       -0.22917       -0.10417        0.00000
 BRILLOUIN|   155           0.00347       -0.22917       -0.06250        0.00000
 BRILLOUIN|   156           0.00347       -0.22917       -0.02083        0.00000
 BRILLOUIN|   157           0.00347       -0.22917        0.02083        0.00000
 BRILLOUIN|   158           0.00347       -0.22917        0.06250        0.00000
 BRILLOUIN|   159           0.00347       -0.22917        0.10417        0.00000
 BRILLOUIN|   160           0.00347       -0.22917        0.14583        0.00000
 BRILLOUIN|   161           0.00347       -0.22917        0.18750        0.00000
 BRILLOUIN|   162           0.00347       -0.22917        0.22917        0.00000
 BRILLOUIN|   163           0.00347       -0.22917        0.27083        0.00000
 BRILLOUIN|   164           0.00347       -0.22917        0.31250        0.00000
 BRILLOUIN|   165           0.00347       -0.22917        0.35417        0.00000
 BRILLOUIN|   166           0.00347       -0.22917        0.39583        0.00000
 BRILLOUIN|   167           0.00347       -0.22917        0.43750        0.00000
 BRILLOUIN|   168           0.00347       -0.22917        0.47917        0.00000
 BRILLOUIN|   169           0.00347       -0.18750       -0.47917        0.00000
 BRILLOUIN|   170           0.00347       -0.18750       -0.43750        0.00000
 BRILLOUIN|   171           0.00347       -0.18750       -0.39583        0.00000
 BRILLOUIN|   172           0.00347       -0.18750       -0.35417        0.00000
 BRILLOUIN|   173           0.00347       -0.18750       -0.31250        0.00000
 BRILLOUIN|   174           0.00347       -0.18750       -0.27083        0.00000
 BRILLOUIN|   175           0.00347       -0.18750       -0.22917        0.00000
 BRILLOUIN|   176           0.00347       -0.18750       -0.18750        0.00000
 BRILLOUIN|   177           0.00347       -0.18750       -0.14583        0.00000
 BRILLOUIN|   178           0.00347       -0.18750       -0.10417        0.00000
 BRILLOUIN|   179           0.00347       -0.18750       -0.06250        0.00000
 BRILLOUIN|   180           0.00347       -0.18750       -0.02083        0.00000
 BRILLOUIN|   181           0.00347       -0.18750        0.02083        0.00000
 BRILLOUIN|   182           0.00347       -0.18750        0.06250        0.00000
 BRILLOUIN|   183           0.00347       -0.18750        0.10417        0.00000
 BRILLOUIN|   184           0.00347       -0.18750        0.14583        0.00000
 BRILLOUIN|   185           0.00347       -0.18750        0.18750        0.00000
 BRILLOUIN|   186           0.00347       -0.18750        0.22917        0.00000
 BRILLOUIN|   187           0.00347       -0.18750        0.27083        0.00000
 BRILLOUIN|   188           0.00347       -0.18750        0.31250        0.00000
 BRILLOUIN|   189           0.00347       -0.18750        0.35417        0.00000
 BRILLOUIN|   190           0.00347       -0.18750        0.39583        0.00000
 BRILLOUIN|   191           0.00347       -0.18750        0.43750        0.00000
 BRILLOUIN|   192           0.00347       -0.18750        0.47917        0.00000
 BRILLOUIN|   193           0.00347       -0.14583       -0.47917        0.00000
 BRILLOUIN|   194           0.00347       -0.14583       -0.43750        0.00000
 BRILLOUIN|   195           0.00347       -0.14583       -0.39583        0.00000
 BRILLOUIN|   196           0.00347       -0.14583       -0.35417        0.00000
 BRILLOUIN|   197           0.00347       -0.14583       -0.31250        0.00000
 BRILLOUIN|   198           0.00347       -0.14583       -0.27083        0.00000
 BRILLOUIN|   199           0.00347       -0.14583       -0.22917        0.00000
 BRILLOUIN|   200           0.00347       -0.14583       -0.18750        0.00000
 BRILLOUIN|   201           0.00347       -0.14583       -0.14583        0.00000
 BRILLOUIN|   202           0.00347       -0.14583       -0.10417        0.00000
 BRILLOUIN|   203           0.00347       -0.14583       -0.06250        0.00000
 BRILLOUIN|   204           0.00347       -0.14583       -0.02083        0.00000
 BRILLOUIN|   205           0.00347       -0.14583        0.02083        0.00000
 BRILLOUIN|   206           0.00347       -0.14583        0.06250        0.00000
 BRILLOUIN|   207           0.00347       -0.14583        0.10417        0.00000
 BRILLOUIN|   208           0.00347       -0.14583        0.14583        0.00000
 BRILLOUIN|   209           0.00347       -0.14583        0.18750        0.00000
 BRILLOUIN|   210           0.00347       -0.14583        0.22917        0.00000
 BRILLOUIN|   211           0.00347       -0.14583        0.27083        0.00000
 BRILLOUIN|   212           0.00347       -0.14583        0.31250        0.00000
 BRILLOUIN|   213           0.00347       -0.14583        0.35417        0.00000
 BRILLOUIN|   214           0.00347       -0.14583        0.39583        0.00000
 BRILLOUIN|   215           0.00347       -0.14583        0.43750        0.00000
 BRILLOUIN|   216           0.00347       -0.14583        0.47917        0.00000
 BRILLOUIN|   217           0.00347       -0.10417       -0.47917        0.00000
 BRILLOUIN|   218           0.00347       -0.10417       -0.43750        0.00000
 BRILLOUIN|   219           0.00347       -0.10417       -0.39583        0.00000
 BRILLOUIN|   220           0.00347       -0.10417       -0.35417        0.00000
 BRILLOUIN|   221           0.00347       -0.10417       -0.31250        0.00000
 BRILLOUIN|   222           0.00347       -0.10417       -0.27083        0.00000
 BRILLOUIN|   223           0.00347       -0.10417       -0.22917        0.00000
 BRILLOUIN|   224           0.00347       -0.10417       -0.18750        0.00000
 BRILLOUIN|   225           0.00347       -0.10417       -0.14583        0.00000
 BRILLOUIN|   226           0.00347       -0.10417       -0.10417        0.00000
 BRILLOUIN|   227           0.00347       -0.10417       -0.06250        0.00000
 BRILLOUIN|   228           0.00347       -0.10417       -0.02083        0.00000
 BRILLOUIN|   229           0.00347       -0.10417        0.02083        0.00000
 BRILLOUIN|   230           0.00347       -0.10417        0.06250        0.00000
 BRILLOUIN|   231           0.00347       -0.10417        0.10417        0.00000
 BRILLOUIN|   232           0.00347       -0.10417        0.14583        0.00000
 BRILLOUIN|   233           0.00347       -0.10417        0.18750        0.00000
 BRILLOUIN|   234           0.00347       -0.10417        0.22917        0.00000
 BRILLOUIN|   235           0.00347       -0.10417        0.27083        0.00000
 BRILLOUIN|   236           0.00347       -0.10417        0.31250        0.00000
 BRILLOUIN|   237           0.00347       -0.10417        0.35417        0.00000
 BRILLOUIN|   238           0.00347       -0.10417        0.39583        0.00000
 BRILLOUIN|   239           0.00347       -0.10417        0.43750        0.00000
 BRILLOUIN|   240           0.00347       -0.10417        0.47917        0.00000
 BRILLOUIN|   241           0.00347       -0.06250       -0.47917        0.00000
 BRILLOUIN|   242           0.00347       -0.06250       -0.43750        0.00000
 BRILLOUIN|   243           0.00347       -0.06250       -0.39583        0.00000
 BRILLOUIN|   244           0.00347       -0.06250       -0.35417        0.00000
 BRILLOUIN|   245           0.00347       -0.06250       -0.31250        0.00000
 BRILLOUIN|   246           0.00347       -0.06250       -0.27083        0.00000
 BRILLOUIN|   247           0.00347       -0.06250       -0.22917        0.00000
 BRILLOUIN|   248           0.00347       -0.06250       -0.18750        0.00000
 BRILLOUIN|   249           0.00347       -0.06250       -0.14583        0.00000
 BRILLOUIN|   250           0.00347       -0.06250       -0.10417        0.00000
 BRILLOUIN|   251           0.00347       -0.06250       -0.06250        0.00000
 BRILLOUIN|   252           0.00347       -0.06250       -0.02083        0.00000
 BRILLOUIN|   253           0.00347       -0.06250        0.02083        0.00000
 BRILLOUIN|   254           0.00347       -0.06250        0.06250        0.00000
 BRILLOUIN|   255           0.00347       -0.06250        0.10417        0.00000
 BRILLOUIN|   256           0.00347       -0.06250        0.14583        0.00000
 BRILLOUIN|   257           0.00347       -0.06250        0.18750        0.00000
 BRILLOUIN|   258           0.00347       -0.06250        0.22917        0.00000
 BRILLOUIN|   259           0.00347       -0.06250        0.27083        0.00000
 BRILLOUIN|   260           0.00347       -0.06250        0.31250        0.00000
 BRILLOUIN|   261           0.00347       -0.06250        0.35417        0.00000
 BRILLOUIN|   262           0.00347       -0.06250        0.39583        0.00000
 BRILLOUIN|   263           0.00347       -0.06250        0.43750        0.00000
 BRILLOUIN|   264           0.00347       -0.06250        0.47917        0.00000
 BRILLOUIN|   265           0.00347       -0.02083       -0.47917        0.00000
 BRILLOUIN|   266           0.00347       -0.02083       -0.43750        0.00000
 BRILLOUIN|   267           0.00347       -0.02083       -0.39583        0.00000
 BRILLOUIN|   268           0.00347       -0.02083       -0.35417        0.00000
 BRILLOUIN|   269           0.00347       -0.02083       -0.31250        0.00000
 BRILLOUIN|   270           0.00347       -0.02083       -0.27083        0.00000
 BRILLOUIN|   271           0.00347       -0.02083       -0.22917        0.00000
 BRILLOUIN|   272           0.00347       -0.02083       -0.18750        0.00000
 BRILLOUIN|   273           0.00347       -0.02083       -0.14583        0.00000
 BRILLOUIN|   274           0.00347       -0.02083       -0.10417        0.00000
 BRILLOUIN|   275           0.00347       -0.02083       -0.06250        0.00000
 BRILLOUIN|   276           0.00347       -0.02083       -0.02083        0.00000
 BRILLOUIN|   277           0.00347       -0.02083        0.02083        0.00000
 BRILLOUIN|   278           0.00347       -0.02083        0.06250        0.00000
 BRILLOUIN|   279           0.00347       -0.02083        0.10417        0.00000
 BRILLOUIN|   280           0.00347       -0.02083        0.14583        0.00000
 BRILLOUIN|   281           0.00347       -0.02083        0.18750        0.00000
 BRILLOUIN|   282           0.00347       -0.02083        0.22917        0.00000
 BRILLOUIN|   283           0.00347       -0.02083        0.27083        0.00000
 BRILLOUIN|   284           0.00347       -0.02083        0.31250        0.00000
 BRILLOUIN|   285           0.00347       -0.02083        0.35417        0.00000
 BRILLOUIN|   286           0.00347       -0.02083        0.39583        0.00000
 BRILLOUIN|   287           0.00347       -0.02083        0.43750        0.00000
 BRILLOUIN|   288           0.00347       -0.02083        0.47917        0.00000
 *******************************************************************************

 *******************************************************************************
 *******************************************************************************
 **                                                                           **
 **     #####                         ##              ##                      **
 **    ##   ##            ##          ##              ##                      **
 **   ##     ##                       ##            ######                    **
 **   ##     ##  ##   ##  ##   #####  ##  ##   ####   ##    #####    #####    **
 **   ##     ##  ##   ##  ##  ##      ## ##   ##      ##   ##   ##  ##   ##   **
 **   ##  ## ##  ##   ##  ##  ##      ####     ###    ##   ######   ######    **
 **    ##  ###   ##   ##  ##  ##      ## ##      ##   ##   ##       ##        **
 **     #######   #####   ##   #####  ##  ##  ####    ##    #####   ##        **
 **           ##                                                    ##        **
 **                                                                           **
 **                                                ... make the atoms dance   **
 **                                                                           **
 **            Copyright (C) by CP2K developers group (2000-2025)             **
 **                      J. Chem. Phys. 152, 194103 (2020)                    **
 **                                                                           **
 *******************************************************************************

 DFT| Spin restricted Kohn-Sham (RKS) calculation                            RKS
 DFT| Multiplicity                                                             1
 DFT| Number of spin states                                                    1
 DFT| Charge                                                                   0
 DFT| Self-interaction correction (SIC)                                       NO
 DFT| Cutoffs: density                                              1.000000E-10
 DFT|          gradient                                             1.000000E-10
 DFT|          tau                                                  1.000000E-10
 DFT|          cutoff_smoothing_range                               0.000000E+00
 DFT| XC density smoothing                                                  NONE
 DFT| XC derivatives                                                          PW

 FUNCTIONAL| PBE:
 FUNCTIONAL| J.P.Perdew, K.Burke, M.Ernzerhof, Phys. Rev. Letter, vol. 77, n 18,
 FUNCTIONAL|  pp. 3865-3868, (1996) {spin unpolarized}                          


 QS| Method:                                                                GAPW
 QS| Density plane wave grid type                        NON-SPHERICAL FULLSPACE
 QS| Number of grid levels:                                                    4
 QS| Density cutoff [a.u.]:                                                250.0
 QS| Multi grid cutoff [a.u.]: 1) grid level                               250.0
 QS|                           2) grid level                                83.3
 QS|                           3) grid level                                27.8
 QS|                           4) grid level                                 9.3
 QS| Grid level progression factor:                                          3.0
 QS| Relative density cutoff [a.u.]:                                        50.0
 QS| Interaction thresholds: eps_pgf_orb:                                1.0E-12
 QS|                         eps_filter_matrix:                          0.0E+00
 QS|                         eps_core_charge:                            1.0E-14
 QS|                         eps_rho_gspace:                             1.0E-12
 QS|                         eps_rho_rspace:                             1.0E-12
 QS|                         eps_gvg_rspace:                             1.0E-06
 QS|                         eps_ppl:                                    1.0E-02
 QS|                         eps_ppnl:                                   1.0E-08
 QS| GAPW|      One center basis from orbital basis primitives
 QS| GAPW|                   eps_fit:                                    1.0E-04
 QS| GAPW|                   eps_iso:                                    1.0E-12
 QS| GAPW|                   eps_svd:                                    1.0E-08
 QS| GAPW|                   eps_cpc:                                    1.0E-12
 QS| GAPW|   atom-r-grid: quadrature:                                     GC_LOG
 QS| GAPW|      atom-s-grid:  max l :                                          4
 QS| GAPW|      max_l_rho0 :                                                   2
 QS| GAPW|      At least one kind is NOT PAW, i.e. it has only soft AO 
 QS| GAPW|      The NOT PAW atoms are treated fully GPW


 ATOMIC KIND INFORMATION

  1. Atomic kind: Bi                                    Number of atoms:      16

     Orbital Basis Set                                    DZVP-MOLOPT-PBE-GTH-q5

       Number of orbital shell sets:                                           1
       Number of orbital shells:                                               5
       Number of primitive Cartesian functions:                                5
       Number of Cartesian basis functions:                                   14
       Number of spherical basis functions:                                   13
       Norm type:                                                              2

       Normalised Cartesian orbitals:

                        Set   Shell   Orbital            Exponent    Coefficient

                          1       1    2s                1.476279      -0.997443
                                                         1.112852       1.652866
                                                         0.244984      -0.634635
                                                         0.105231       0.143008
                                                         0.041275       0.036970

                          1       2    3s                1.476279       0.075949
                                                         1.112852      -0.165741
                                                         0.244984       0.037757
                                                         0.105231       0.099805
                                                         0.041275       0.012494

                          1       3    3px               1.476279      -0.495329
                                                         1.112852       0.914643
                                                         0.244984      -0.349921
                                                         0.105231       0.071240
                                                         0.041275       0.016319
                          1       3    3py               1.476279      -0.495329
                                                         1.112852       0.914643
                                                         0.244984      -0.349921
                                                         0.105231       0.071240
                                                         0.041275       0.016319
                          1       3    3pz               1.476279      -0.495329
                                                         1.112852       0.914643
                                                         0.244984      -0.349921
                                                         0.105231       0.071240
                                                         0.041275       0.016319

                          1       4    4px               1.476279       0.147718
                                                         1.112852      -0.270445
                                                         0.244984       0.086390
                                                         0.105231       0.049044
                                                         0.041275       0.005556
                          1       4    4py               1.476279       0.147718
                                                         1.112852      -0.270445
                                                         0.244984       0.086390
                                                         0.105231       0.049044
                                                         0.041275       0.005556
                          1       4    4pz               1.476279       0.147718
                                                         1.112852      -0.270445
                                                         0.244984       0.086390
                                                         0.105231       0.049044
                                                         0.041275       0.005556

                          1       5    4dx2              1.476279      -0.420685
                                                         1.112852       0.508862
                                                         0.244984      -0.083233
                                                         0.105231      -0.010675
                                                         0.041275      -0.001828
                          1       5    4dxy              1.476279      -0.728647
                                                         1.112852       0.881376
                                                         0.244984      -0.144163
                                                         0.105231      -0.018489
                                                         0.041275      -0.003166
                          1       5    4dxz              1.476279      -0.728647
                                                         1.112852       0.881376
                                                         0.244984      -0.144163
                                                         0.105231      -0.018489
                                                         0.041275      -0.003166
                          1       5    4dy2              1.476279      -0.420685
                                                         1.112852       0.508862
                                                         0.244984      -0.083233
                                                         0.105231      -0.010675
                                                         0.041275      -0.001828
                          1       5    4dyz              1.476279      -0.728647
                                                         1.112852       0.881376
                                                         0.244984      -0.144163
                                                         0.105231      -0.018489
                                                         0.041275      -0.003166
                          1       5    4dz2              1.476279      -0.420685
                                                         1.112852       0.508862
                                                         0.244984      -0.083233
                                                         0.105231      -0.010675
                                                         0.041275      -0.001828

       Atomic covalent radius [Angstrom]:                                  1.460

       Atomic van der Waals radius [Angstrom]:                             2.070

     GTH Potential information for                                       GTH-PBE

       Description:                       Goedecker-Teter-Hutter pseudopotential
                                           Goedecker et al., PRB 54, 1703 (1996)
                                          Hartwigsen et al., PRB 58, 3641 (1998)
                                                      Krack, TCA 114, 145 (2005)

       Gaussian exponent of the core charge distribution:               1.366027
       Electronic configuration (s p d ...):                               2   3

       Parameters of the local part of the GTH pseudopotential:

                          rloc        C1          C2          C3          C4
                        0.605000    7.945757

       Parameters of the non-local part of the GTH pseudopotential:

                   l      r(l)      h(i,j,l)

                   0    0.582232    0.643735    2.247616   -1.440601
                                    2.247616   -5.244797    3.719615
                                   -1.440601    3.719615   -2.952353
                   1    0.766394    0.212533    0.379834
                                    0.379834   -0.449426
                   2    0.965655    0.347298

  2. Atomic kind: Te                                    Number of atoms:      24

     Orbital Basis Set                                    DZVP-MOLOPT-PBE-GTH-q6

       Number of orbital shell sets:                                           1
       Number of orbital shells:                                               5
       Number of primitive Cartesian functions:                                4
       Number of Cartesian basis functions:                                   14
       Number of spherical basis functions:                                   13
       Norm type:                                                              2

       Normalised Cartesian orbitals:

                        Set   Shell   Orbital            Exponent    Coefficient

                          1       1    2s                1.502058       0.033423
                                                         1.445079      -0.076164
                                                         0.277535       0.014326
                                                         0.094459       0.118098

                          1       2    3s                1.502058      11.238957
                                                         1.445079     -12.030880
                                                         0.277535       0.712043
                                                         0.094459      -0.196980

                          1       3    3px               1.502058       1.102918
                                                         1.445079      -0.602675
                                                         0.277535       0.144297
                                                         0.094459       0.036841
                          1       3    3py               1.502058       1.102918
                                                         1.445079      -0.602675
                                                         0.277535       0.144297
                                                         0.094459       0.036841
                          1       3    3pz               1.502058       1.102918
                                                         1.445079      -0.602675
                                                         0.277535       0.144297
                                                         0.094459       0.036841

                          1       4    4px               1.502058      -1.581581
                                                         1.445079      -1.100225
                                                         0.277535       0.176141
                                                         0.094459      -0.019328
                          1       4    4py               1.502058      -1.581581
                                                         1.445079      -1.100225
                                                         0.277535       0.176141
                                                         0.094459      -0.019328
                          1       4    4pz               1.502058      -1.581581
                                                         1.445079      -1.100225
                                                         0.277535       0.176141
                                                         0.094459      -0.019328

                          1       5    4dx2              1.502058      -0.594376
                                                         1.445079       0.764245
                                                         0.277535      -0.143332
                                                         0.094459      -0.007518
                          1       5    4dxy              1.502058      -1.029490
                                                         1.445079       1.323711
                                                         0.277535      -0.248258
                                                         0.094459      -0.013021
                          1       5    4dxz              1.502058      -1.029490
                                                         1.445079       1.323711
                                                         0.277535      -0.248258
                                                         0.094459      -0.013021
                          1       5    4dy2              1.502058      -0.594376
                                                         1.445079       0.764245
                                                         0.277535      -0.143332
                                                         0.094459      -0.007518
                          1       5    4dyz              1.502058      -1.029490
                                                         1.445079       1.323711
                                                         0.277535      -0.248258
                                                         0.094459      -0.013021
                          1       5    4dz2              1.502058      -0.594376
                                                         1.445079       0.764245
                                                         0.277535      -0.143332
                                                         0.094459      -0.007518

       Atomic covalent radius [Angstrom]:                                  1.360

       Atomic van der Waals radius [Angstrom]:                             2.060

     GTH Potential information for                                       GTH-PBE

       Description:                       Goedecker-Teter-Hutter pseudopotential
                                           Goedecker et al., PRB 54, 1703 (1996)
                                          Hartwigsen et al., PRB 58, 3641 (1998)
                                                      Krack, TCA 114, 145 (2005)

       Gaussian exponent of the core charge distribution:               1.512287
       Electronic configuration (s p d ...):                               2   4

       Parameters of the local part of the GTH pseudopotential:

                          rloc        C1          C2          C3          C4
                        0.575000    8.713649

       Parameters of the non-local part of the GTH pseudopotential:

                   l      r(l)      h(i,j,l)

                   0    0.574922    1.401813    0.978780   -0.486306
                                    0.978780   -2.054576    1.255637
                                   -0.486306    1.255637   -0.996631
                   1    0.589891    0.764789    0.323986
                                    0.323986   -0.383346
                   2    0.813389    0.344858


 MOLECULE KIND INFORMATION


 All atoms are their own molecule, skipping detailed information


 TOTAL NUMBERS AND MAXIMUM NUMBERS

  Total number of            - Atomic kinds:                                   2
                             - Atoms:                                         40
                             - Shell sets:                                    40
                             - Shells:                                       200
                             - Primitive Cartesian functions:                176
                             - Cartesian basis functions:                    560
                             - Spherical basis functions:                    520

  Maximum angular momentum of- Orbital basis functions:                        2
                             - Local part of the GTH pseudopotential:          0
                             - Non-local part of the GTH pseudopotential:      4


 MODULE QUICKSTEP: ATOMIC COORDINATES IN ANGSTROM

   Atom Kind Element         X             Y             Z       Z(eff)     Mass
      1    1 Bi   83      0.000000      0.000000     12.190003   5.0000 208.9804
      2    1 Bi   83      0.000000      0.000000    109.569999   5.0000 208.9804
      3    1 Bi   83      2.197500      1.268727     22.336670   5.0000 208.9804
      4    1 Bi   83      2.197500      1.268727    119.716666   5.0000 208.9804
      5    1 Bi   83      0.000000      2.537454     32.483336   5.0000 208.9804
      6    1 Bi   83      0.000000      2.537454      8.103331   5.0000 208.9804
      7    1 Bi   83      0.000000      0.000000     79.129999   5.0000 208.9804
      8    1 Bi   83      2.197500      1.268727     89.276666   5.0000 208.9804
      9    1 Bi   83      0.000000      2.537454     99.423333   5.0000 208.9804
     10    1 Bi   83      2.197500      1.268727     83.216671   5.0000 208.9804
     11    1 Bi   83      0.000000      2.537454     93.363338   5.0000 208.9804
     12    1 Bi   83      0.000000      0.000000    103.510004   5.0000 208.9804
     13    1 Bi   83      0.000000      0.000000     18.249998   5.0000 208.9804
     14    1 Bi   83      2.197500      1.268727    113.656671   5.0000 208.9804
     15    1 Bi   83      2.197500      1.268727     28.396665   5.0000 208.9804
     16    1 Bi   83      0.000000      2.537454      2.043336   5.0000 208.9804
     17    2 Te   52      0.000000      0.000000    121.760002   6.0000 127.6000
     18    2 Te   52      2.197500      1.268727     10.146667   6.0000 127.6000
     19    2 Te   52      0.000000      2.537454     20.293334   6.0000 127.6000
     20    2 Te   52      0.000000      0.000000     30.440001   6.0000 127.6000
     21    2 Te   52      0.000000      0.000000     91.320002   6.0000 127.6000
     22    2 Te   52      2.197500      1.268727    101.466668   6.0000 127.6000
     23    2 Te   52      0.000000      2.537454    111.613335   6.0000 127.6000
     24    2 Te   52      0.000000      2.537454     81.173335   6.0000 127.6000
     25    2 Te   52      0.000000      0.000000     24.056733   6.0000 127.6000
     26    2 Te   52      0.000000      0.000000     97.703269   6.0000 127.6000
     27    2 Te   52      2.197500      1.268727     34.203400   6.0000 127.6000
     28    2 Te   52      2.197500      1.268727    107.849936   6.0000 127.6000
     29    2 Te   52      0.000000      2.537454    117.996603   6.0000 127.6000
     30    2 Te   52      2.197500      1.268727     77.409936   6.0000 127.6000
     31    2 Te   52      0.000000      2.537454     87.556603   6.0000 127.6000
     32    2 Te   52      0.000000      0.000000     84.936734   6.0000 127.6000
     33    2 Te   52      2.197500      1.268727     95.083401   6.0000 127.6000
     34    2 Te   52      0.000000      2.537454    105.230068   6.0000 127.6000
     35    2 Te   52      0.000000      0.000000    115.376734   6.0000 127.6000
     36    2 Te   52      0.000000      0.000000      6.383268   6.0000 127.6000
     37    2 Te   52      2.197500      1.268727      3.763399   6.0000 127.6000
     38    2 Te   52      2.197500      1.268727     16.529935   6.0000 127.6000
     39    2 Te   52      0.000000      2.537454     13.910066   6.0000 127.6000
     40    2 Te   52      0.000000      2.537454     26.676601   6.0000 127.6000



 SCF PARAMETERS         Density guess:                                    ATOMIC
                        --------------------------------------------------------
                        max_scf:                                             500
                        max_scf_history:                                       0
                        max_diis:                                              4
                        --------------------------------------------------------
                        eps_scf:                                        1.00E-06
                        eps_scf_history:                                0.00E+00
                        eps_diis:                                       1.00E-01
                        eps_eigval:                                     1.00E-05
                        --------------------------------------------------------
                        level_shift [a.u.]:                             0.000000
                        added MOs                                       100    0
                        --------------------------------------------------------
                        Mixing method:                            BROYDEN_MIXING
                                                charge density mixing in g-space
                        --------------------------------------------------------
                        Smear method:                                FERMI_DIRAC
                        Electronic temperature [K]:                        300.0
                        Electronic temperature [a.u.]:                  9.50E-04
                        Accuracy threshold:                             1.00E-10
                        --------------------------------------------------------
                        No outer SCF

 PW_GRID| Information for grid number                                          1
 PW_GRID| Grid distributed over                                    32 processors
 PW_GRID| Real space group dimensions                                    32    1
 PW_GRID| the grid is blocked:                                                NO
 PW_GRID| Cutoff [a.u.]                                                    250.0
 PW_GRID| spherical cutoff:                                                   NO
 PW_GRID|   Bounds   1            -30      29                Points:          60
 PW_GRID|   Bounds   2            -30      29                Points:          60
 PW_GRID|   Bounds   3           -825     824                Points:        1650
 PW_GRID| Volume element (a.u.^3)  0.2305E-02     Volume (a.u.^3)     13688.9292
 PW_GRID| Grid span                                                    FULLSPACE
 PW_GRID|   Distribution                         Average         Max         Min
 PW_GRID|   G-Vectors                           185625.0      185640      185580
 PW_GRID|   G-Rays                                3093.8        3094        3093
 PW_GRID|   Real Space Points                   185625.0      198000       99000

 PW_GRID| Information for grid number                                          2
 PW_GRID| Number of the reference grid                                         1
 PW_GRID| Grid distributed over                                    32 processors
 PW_GRID| Real space group dimensions                                    32    1
 PW_GRID| the grid is blocked:                                                NO
 PW_GRID| Cutoff [a.u.]                                                     83.3
 PW_GRID| spherical cutoff:                                                   NO
 PW_GRID|   Bounds   1            -17      17                Points:          35
 PW_GRID|   Bounds   2            -17      17                Points:          35
 PW_GRID|   Bounds   3           -472     472                Points:         945
 PW_GRID| Volume element (a.u.^3)  0.1183E-01     Volume (a.u.^3)     13688.9292
 PW_GRID| Grid span                                                    FULLSPACE
 PW_GRID|   Distribution                         Average         Max         Min
 PW_GRID|   G-Vectors                            36175.8       37275       35035
 PW_GRID|   G-Rays                                1033.6        1065        1001
 PW_GRID|   Real Space Points                    36175.8       66150       33075

 PW_GRID| Information for grid number                                          3
 PW_GRID| Number of the reference grid                                         1
 PW_GRID| Grid distributed over                                    32 processors
 PW_GRID| Real space group dimensions                                     4    8
 PW_GRID| the grid is blocked:                                                NO
 PW_GRID| Cutoff [a.u.]                                                     27.8
 PW_GRID| spherical cutoff:                                                   NO
 PW_GRID|   Bounds   1            -10       9                Points:          20
 PW_GRID|   Bounds   2            -10       9                Points:          20
 PW_GRID|   Bounds   3           -275     274                Points:         550
 PW_GRID| Volume element (a.u.^3)  0.6222E-01     Volume (a.u.^3)     13688.9292
 PW_GRID| Grid span                                                    FULLSPACE
 PW_GRID|   Distribution                         Average         Max         Min
 PW_GRID|   G-Vectors                             6875.0        7040        6740
 PW_GRID|   G-Rays                                 343.8         352         337
 PW_GRID|   Real Space Points                     6875.0        8250        5500

 PW_GRID| Information for grid number                                          4
 PW_GRID| Number of the reference grid                                         1
 PW_GRID| Grid distributed over                                    32 processors
 PW_GRID| Real space group dimensions                                     4    8
 PW_GRID| the grid is blocked:                                                NO
 PW_GRID| Cutoff [a.u.]                                                      9.3
 PW_GRID| spherical cutoff:                                                   NO
 PW_GRID|   Bounds   1             -5       5                Points:          11
 PW_GRID|   Bounds   2             -5       5                Points:          11
 PW_GRID|   Bounds   3           -157     157                Points:         315
 PW_GRID| Volume element (a.u.^3)  0.3591         Volume (a.u.^3)     13688.9292
 PW_GRID| Grid span                                                    FULLSPACE
 PW_GRID|   Distribution                         Average         Max         Min
 PW_GRID|   G-Vectors                             1191.1        1375        1023
 PW_GRID|   G-Rays                                 108.3         125          93
 PW_GRID|   Real Space Points                     1191.1        1890         630

 POISSON| Solver                                                        PERIODIC
 POISSON| Periodicity                                                        XYZ

 *** WARNING in pw_env_methods.F:744 :: The selected periodicities in the ***
 *** sections &CELL and &POISSON do not match                             ***


 RS_GRID| Information for grid number                                          1
 RS_GRID|   Bounds   1            -30      29                Points:          60
 RS_GRID|   Bounds   2            -30      29                Points:          60
 RS_GRID|   Bounds   3           -825     824                Points:        1650
 RS_GRID| Real space distribution over                                 32 groups
 RS_GRID| Real space distribution along direction                              3
 RS_GRID| Border size                                                         55
 RS_GRID|   Distribution                         Average         Max         Min
 RS_GRID|   Planes                                 161.6         162         161

 RS_GRID| Information for grid number                                          2
 RS_GRID|   Bounds   1            -17      17                Points:          35
 RS_GRID|   Bounds   2            -17      17                Points:          35
 RS_GRID|   Bounds   3           -472     472                Points:         945
 RS_GRID| Real space distribution over                                 32 groups
 RS_GRID| Real space distribution along direction                              3
 RS_GRID| Border size                                                         40
 RS_GRID|   Distribution                         Average         Max         Min
 RS_GRID|   Planes                                 109.5         110         109

 RS_GRID| Information for grid number                                          3
 RS_GRID|   Bounds   1            -10       9                Points:          20
 RS_GRID|   Bounds   2            -10       9                Points:          20
 RS_GRID|   Bounds   3           -275     274                Points:         550
 RS_GRID| Real space fully replicated
 RS_GRID| Group size                                                           1

 RS_GRID| Information for grid number                                          4
 RS_GRID|   Bounds   1             -5       5                Points:          11
 RS_GRID|   Bounds   2             -5       5                Points:          11
 RS_GRID|   Bounds   3           -157     157                Points:         315
 RS_GRID| Real space fully replicated
 RS_GRID| Group size                                                           1

 Number of electrons:                                                        224
 Number of occupied orbitals:                                                112
 Number of molecular orbitals:                                               212

 Number of orbital functions:                                                520
 Number of independent orbital functions:                                    520

 Extrapolation method: initial_guess

 Atomic guess: The first density matrix is obtained in terms of atomic orbitals
               and electronic configurations assigned to each atomic kind

 Guess for atomic kind: Bi

 Electronic structure
    Total number of core electrons                                         78.00
    Total number of valence electrons                                       5.00
    Total number of electrons                                              83.00
    Multiplicity                                                   not specified
    S   [  2.00  2.00  2.00  2.00  2.00] 2.00
    P   [  6.00  6.00  6.00  6.00] 3.00
    D   [ 10.00 10.00 10.00]
    F   [ 14.00]


 *******************************************************************************
                  Iteration          Convergence                     Energy [au]
 *******************************************************************************
                          1        0.344088                      -5.203544255590
                          2        0.953843E-01                  -5.287248452384
                          3        0.208524E-02                  -5.293237534083
                          4        0.540811E-03                  -5.293239981619
                          5        0.138286E-03                  -5.293240147173
                          6        0.774697E-04                  -5.293240155121
                          7        0.480550E-07                  -5.293240158756

 Energy components [Hartree]           Total Energy ::           -5.293240158756
                                        Band Energy ::           -1.445767625050
                                     Kinetic Energy ::            1.664901791849
                                   Potential Energy ::           -6.958141950605
                                      Virial (-V/T) ::            4.179310746538
                                        Core Energy ::           -8.297177275556
                                          XC Energy ::           -1.209841695568
                                     Coulomb Energy ::            4.213778812368
                       Total Pseudopotential Energy ::          -10.031346163158
                       Local Pseudopotential Energy ::          -10.016361699970
                    Nonlocal Pseudopotential Energy ::           -0.014984463188
                                        Confinement ::            0.692670957533

 Orbital energies  State     L     Occupation   Energy[a.u.]          Energy[eV]

                       1     0          2.000      -0.507803          -13.818023

                       1     1          3.000      -0.143387           -3.901764


 Total Electron Density at R=0:                                         0.000039

 Guess for atomic kind: Te

 Electronic structure
    Total number of core electrons                                         46.00
    Total number of valence electrons                                       6.00
    Total number of electrons                                              52.00
    Multiplicity                                                   not specified
    S   [  2.00  2.00  2.00  2.00] 2.00
    P   [  6.00  6.00  6.00] 4.00
    D   [ 10.00 10.00]


 *******************************************************************************
                  Iteration          Convergence                     Energy [au]
 *******************************************************************************
                          1        0.170808                      -7.918830380598
                          2        0.677776E-02                  -7.929541527278
                          3        0.425573E-04                  -7.929556514483
                          4        0.433631E-07                  -7.929556514749

 Energy components [Hartree]           Total Energy ::           -7.929556514749
                                        Band Energy ::           -1.635454752248
                                     Kinetic Energy ::            2.580410176605
                                   Potential Energy ::          -10.509966691354
                                      Virial (-V/T) ::            4.072982964741
                                        Core Energy ::          -13.031731493583
                                          XC Energy ::           -1.713122621398
                                     Coulomb Energy ::            6.815297600232
                       Total Pseudopotential Energy ::          -15.677061247171
                       Local Pseudopotential Energy ::          -15.992765079090
                    Nonlocal Pseudopotential Energy ::            0.315703831919
                                        Confinement ::            0.649195769841

 Orbital energies  State     L     Occupation   Energy[a.u.]          Energy[eV]

                       1     0          2.000      -0.493377          -13.425458

                       1     1          4.000      -0.162175           -4.413018


 Total Electron Density at R=0:                                         0.000026
 Re-scaling the density matrix to get the right number of electrons
                  # Electrons              Trace(P)               Scaling factor
                          224               224.000                        1.000


 SCF WAVEFUNCTION OPTIMIZATION

  Step     Update method      Time    Convergence         Total energy    Change
  ------------------------------------------------------------------------------
     1 NoMix/Diag. 0.10E+00    4.5     0.39709736      -284.8500898736 -2.85E+02
     2 Broy./Diag. 0.10E+00    4.0     0.56254547      -288.5400887106 -3.69E+00
     3 Broy./Diag. 0.10E+00    4.1     0.25102992      -288.4049234015  1.35E-01
     4 Broy./Diag. 0.10E+00    3.9     0.28659383      -288.0860265808  3.19E-01
     5 Broy./Diag. 0.10E+00    3.9     0.15982612      -287.6047182634  4.81E-01
     6 Broy./Diag. 0.10E+00    3.9     0.07066738      -286.9635326334  6.41E-01
     7 Broy./Diag. 0.10E+00    3.9     0.05702517      -286.1507573589  8.13E-01
     8 Broy./Diag. 0.10E+00    4.0     0.03807029      -285.7544271993  3.96E-01
     9 Broy./Diag. 0.10E+00    3.9     0.02762408      -285.5288438464  2.26E-01
    10 Broy./Diag. 0.10E+00    4.4     0.01744735      -285.3277663178  2.01E-01
    11 Broy./Diag. 0.10E+00    4.0     0.01398626      -285.1883339371  1.39E-01
    12 Broy./Diag. 0.10E+00    4.3     0.01225438      -285.1105491024  7.78E-02
    13 Broy./Diag. 0.10E+00    3.9     0.01140122      -284.9789803665  1.32E-01
    14 Broy./Diag. 0.10E+00    3.9     0.00371346      -284.9304975730  4.85E-02
    15 Broy./Diag. 0.10E+00    4.1     0.00573863      -284.8671743993  6.33E-02
    16 Broy./Diag. 0.10E+00    3.9     0.00219544      -284.8443473687  2.28E-02
    17 Broy./Diag. 0.10E+00    4.2     0.00205369      -284.8332360552  1.11E-02
    18 Broy./Diag. 0.10E+00    4.0     0.00187536      -284.8330358048  2.00E-04
    19 Broy./Diag. 0.10E+00    3.9     0.00067096      -284.8358831966 -2.85E-03
    20 Broy./Diag. 0.10E+00    3.9     0.00102906      -284.8445973388 -8.71E-03
    21 Broy./Diag. 0.10E+00    3.9     0.00046168      -284.8469287644 -2.33E-03
    22 Broy./Diag. 0.10E+00    4.0     0.00053027      -284.8470565319 -1.28E-04
    23 Broy./Diag. 0.10E+00    4.0     0.00044421      -284.8466801358  3.76E-04
    24 Broy./Diag. 0.10E+00    3.9     0.00048555      -284.8462143491  4.66E-04
    25 Broy./Diag. 0.10E+00    4.4     0.00011545      -284.8457962546  4.18E-04
    26 Broy./Diag. 0.10E+00    4.0     0.00012179      -284.8453392185  4.57E-04
    27 Broy./Diag. 0.10E+00    3.9     0.00017340      -284.8442229508  1.12E-03
    28 Broy./Diag. 0.10E+00    3.9     0.00007756      -284.8439454833  2.77E-04
    29 Broy./Diag. 0.10E+00    3.9     0.00011525      -284.8437514732  1.94E-04
    30 Broy./Diag. 0.10E+00    4.0     0.00004990      -284.8436236584  1.28E-04
    31 Broy./Diag. 0.10E+00    3.9     0.00004338      -284.8434811445  1.43E-04
    32 Broy./Diag. 0.10E+00    4.2     0.00004734      -284.8433849719  9.62E-05
    33 Broy./Diag. 0.10E+00    4.1     0.00003750      -284.8432282206  1.57E-04
    34 Broy./Diag. 0.10E+00    3.9     0.00003702      -284.8430352516  1.93E-04
    35 Broy./Diag. 0.10E+00    3.9     0.00002886      -284.8429366409  9.86E-05
    36 Broy./Diag. 0.10E+00    3.9     0.00002012      -284.8428669658  6.97E-05
    37 Broy./Diag. 0.10E+00    4.0     0.00003146      -284.8427860927  8.09E-05
    38 Broy./Diag. 0.10E+00    3.9     0.00001077      -284.8427361715  4.99E-05
    39 Broy./Diag. 0.10E+00    4.0     0.00001771      -284.8426902821  4.59E-05
    40 Broy./Diag. 0.10E+00    4.4     0.00000617      -284.8426737982  1.65E-05
    41 Broy./Diag. 0.10E+00    3.9     0.00000803      -284.8426574224  1.64E-05
    42 Broy./Diag. 0.10E+00    3.9     0.00000591      -284.8426390398  1.84E-05
    43 Broy./Diag. 0.10E+00    4.2     0.00000443      -284.8426186557  2.04E-05
    44 Broy./Diag. 0.10E+00    4.1     0.00000497      -284.8426016183  1.70E-05
    45 Broy./Diag. 0.10E+00    3.9     0.00000375      -284.8425912623  1.04E-05
    46 Broy./Diag. 0.10E+00    3.9     0.00000315      -284.8425832978  7.96E-06
    47 Broy./Diag. 0.10E+00    4.4     0.00000197      -284.8425825384  7.59E-07
    48 Broy./Diag. 0.10E+00    4.1     0.00000217      -284.8425821502  3.88E-07
    49 Broy./Diag. 0.10E+00    3.9     0.00000227      -284.8425857038 -3.55E-06
    50 Broy./Diag. 0.10E+00    3.9     0.00000066      -284.8425889425 -3.24E-06

  *** SCF run converged in    50 steps ***


  Electronic density on regular grids:       -224.0000000000       -0.0000000000
  Core density on regular grids:              223.9999999992       -0.0000000008
  Hard and soft densities (Lebedev):           -0.0000000000       -0.0000000000
  Total Rho_soft + Rho1_hard - Rho1_soft     -224.0000000000
  Total charge density (r-space):              -0.0000000008
  Total Rho_soft + Rho0_soft (g-space):        -0.0000000008

  Overlap energy of the core charge distribution:               0.00000000108123
  Self energy of the core charge distribution:               -610.38704035654632
  Core Hamiltonian energy:                                    124.62025088670248
  Hartree energy:                                             266.33720238701983
  Exchange-correlation energy:                                -65.41234684307608

  GAPW| Exc from hard and soft atomic rho1:                     0.00000000000000
  GAPW| local Eh = 1 center integrals:                          0.00000000000000
  Electronic entropic energy:                                  -0.00065501761128
  Fermi energy:                                                 0.06201331351581

  Total energy:                                              -284.84258894245710

 !-----------------------------------------------------------------------------!
                     Mulliken Population Analysis

 #  Atom  Element  Kind  Atomic population                           Net charge
[...]
       6     Bi       1          5.039240                             -0.039240
       7     Bi       1          5.008281                             -0.008281
       8     Bi       1          5.036544                             -0.036544
       9     Bi       1          5.037095                             -0.037095
      10     Bi       1          5.033989                             -0.033989
      11     Bi       1          5.036750                             -0.036750
      12     Bi       1          5.037263                             -0.037263
      13     Bi       1          5.037309                             -0.037309
      14     Bi       1          5.043211                             -0.043211
      15     Bi       1          5.033987                             -0.033987
      16     Bi       1          5.870370                             -0.870370
      17     Te       2          5.321167                              0.678833
      18     Te       2          5.993380                              0.006620
      19     Te       2          5.996292                              0.003708
      20     Te       2          6.006899                             -0.006899
      21     Te       2          5.996656                              0.003344
      22     Te       2          5.996038                              0.003962
      23     Te       2          5.990697                              0.009303
      24     Te       2          6.006898                             -0.006898
      25     Te       2          5.965516                              0.034484
      26     Te       2          5.964948                              0.035052
      27     Te       2          5.984848                              0.015152
      28     Te       2          5.964845                              0.035155
      29     Te       2          5.964593                              0.035407
      30     Te       2          5.984438                              0.015562
      31     Te       2          5.965022                              0.034978
      32     Te       2          5.966230                              0.033770
      33     Te       2          5.964841                              0.035159
      34     Te       2          5.963704                              0.036296
      35     Te       2          5.947895                              0.052105
      36     Te       2          5.939984                              0.060016
      37     Te       2          5.879610                              0.120390
      38     Te       2          5.961910                              0.038090
      39     Te       2          5.967085                              0.032915
      40     Te       2          5.965666                              0.034334
 # Total charge                            224.000000                  0.000000

 !-----------------------------------------------------------------------------!

 !-----------------------------------------------------------------------------!
                           Hirshfeld Charges

  #Atom  Element  Kind  Ref Charge     Population                    Net charge
      1       Bi     1       5.000          4.835                         0.165
      2       Bi     1       5.000          4.836                         0.164
      3       Bi     1       5.000          4.834                         0.166
      4       Bi     1       5.000          4.821                         0.179
      5       Bi     1       5.000          4.814                         0.186
      6       Bi     1       5.000          4.838                         0.162
      7       Bi     1       5.000          4.814                         0.186
      8       Bi     1       5.000          4.834                         0.166
      9       Bi     1       5.000          4.835                         0.165
     10       Bi     1       5.000          4.832                         0.168
     11       Bi     1       5.000          4.834                         0.166
     12       Bi     1       5.000          4.835                         0.165
     13       Bi     1       5.000          4.835                         0.165
     14       Bi     1       5.000          4.840                         0.160
     15       Bi     1       5.000          4.832                         0.168
     16       Bi     1       5.000          4.846                         0.154
     17       Te     2       6.000          6.259                        -0.259
     18       Te     2       6.000          6.163                        -0.163
     19       Te     2       6.000          6.165                        -0.165
     20       Te     2       6.000          6.168                        -0.168
     21       Te     2       6.000          6.165                        -0.165
     22       Te     2       6.000          6.164                        -0.164
     23       Te     2       6.000          6.161                        -0.161
     24       Te     2       6.000          6.168                        -0.168
     25       Te     2       6.000          6.084                        -0.084
     26       Te     2       6.000          6.083                        -0.083
     27       Te     2       6.000          6.102                        -0.102
     28       Te     2       6.000          6.083                        -0.083
     29       Te     2       6.000          6.066                        -0.066
     30       Te     2       6.000          6.102                        -0.102
     31       Te     2       6.000          6.083                        -0.083
     32       Te     2       6.000          6.084                        -0.084
     33       Te     2       6.000          6.083                        -0.083
     34       Te     2       6.000          6.082                        -0.082
     35       Te     2       6.000          6.067                        -0.067
     36       Te     2       6.000          6.057                        -0.057
     37       Te     2       6.000          6.046                        -0.046
     38       Te     2       6.000          6.080                        -0.080
     39       Te     2       6.000          6.085                        -0.085
     40       Te     2       6.000          6.083                        -0.083

  Total Charge                                                            0.000
 !-----------------------------------------------------------------------------!

 KPOINTS| Band Structure Calculation
 KPOINTS| Number of k-point sets                                               1
 KPOINTS| Number of added MOs/bands                                           50
 KPOINTS| Number of k-points in set    1                                     161
 KPOINTS| In units of b-vector [2pi/Bohr]
 KPOINTS| Special point     1          Kd     0.333333     0.333333     0.000000
 KPOINTS| Special point     2       GAMMA     0.000000     0.000000     0.000000
 KPOINTS| Special point     3          Kd     0.333333     0.333333     0.000000
 KPOINTS| Time for k-point line                                            9.015

 ENERGY| Total FORCE_EVAL ( QS ) energy [hartree]           -284.842588942457098

 -------------------------------------------------------------------------------
 -                                                                             -
 -                                DBCSR STATISTICS                             -
 -                                                                             -
 -------------------------------------------------------------------------------
 COUNTER                                    TOTAL       BLAS       SMM       ACC
 flops inhomo. stacks                           0       0.0%      0.0%      0.0%
 flops total                         0.000000E+00       0.0%      0.0%      0.0%
 flops max/rank                      0.000000E+00       0.0%      0.0%      0.0%
 matmuls inhomo. stacks                         0       0.0%      0.0%      0.0%
 matmuls total                                  0       0.0%      0.0%      0.0%
 number of processed stacks                     0       0.0%      0.0%      0.0%
 average stack size                                     0.0       0.0       0.0
 marketing flops                     0.000000E+00
 -------------------------------------------------------------------------------
 -                                                                             -
 -                      DBCSR MESSAGE PASSING PERFORMANCE                      -
 -                                                                             -
 -------------------------------------------------------------------------------
 ROUTINE             CALLS      AVE VOLUME [Bytes]
 MP_Bcast                1                     12.
 MP_Allreduce           19                     21.
 MP_Alltoall       1197832                  18298.
 -------------------------------------------------------------------------------

 -------------------------------------------------------------------------------
 -                                                                             -
 -                                DBM STATISTICS                               -
 -                                                                             -
 -------------------------------------------------------------------------------
    M  x    N  x    K                                          COUNT     PERCENT
 -------------------------------------------------------------------------------

 -------------------------------------------------------------------------------
 -                                                                             -
 -                                GRID STATISTICS                              -
 -                                                                             -
 -------------------------------------------------------------------------------
 LP    KERNEL             BACKEND                              COUNT     PERCENT
 4     collocate general  CPU                                3755691      50.47%
 4     integrate general  CPU                                3682050      49.48%
 0     collocate general  CPU                                   2560       0.03%
 0     integrate general  CPU                                   1280       0.02%
 -------------------------------------------------------------------------------

 MEMORY| Estimated peak process memory [MiB]                                 985

 -------------------------------------------------------------------------------
 ----                             MULTIGRID INFO                            ----
 -------------------------------------------------------------------------------
 count for grid        1:          96968          cutoff [a.u.]          250.00
 count for grid        2:         126756          cutoff [a.u.]           83.33
 count for grid        3:         111869          cutoff [a.u.]           27.78
 count for grid        4:          46333          cutoff [a.u.]            9.26
 total gridlevel count  :         381926

 -------------------------------------------------------------------------------
 -                                                                             -
 -                         MESSAGE PASSING PERFORMANCE                         -
 -                                                                             -
 -------------------------------------------------------------------------------

 ROUTINE             CALLS      AVE VOLUME [Bytes]
 MP_Group                6
 MP_Bcast           522400                   1817.
 MP_Allreduce        26969                   1005.
 MP_Sync                 4
 MP_Alltoall          1274                5325712.
 MP_SendRecv          3162                  40560.
 MP_ISendRecv         3100                  40560.
 MP_Wait            366515
 MP_comm_split           4
 MP_ISend           369188                  20568.
 MP_IRecv           620288                  11746.
 -------------------------------------------------------------------------------


 -------------------------------------------------------------------------------
 -                                                                             -
 -                           R E F E R E N C E S                               -
 -                                                                             -
 -------------------------------------------------------------------------------
 
 CP2K version 2025.1 (Development Version), the CP2K developers group (2025).
 CP2K is freely available from https://www.cp2k.org/ .
 
 T. D. Kuehne, M. Iannuzzi, M. Del Ben, V. V. Rybkin, P. Seewald, F. Stein, T. 
 Laino, R. Z. Khaliullin, O. Schuett, F. Schiffmann, D. Golze, J. Wilhelm, S. 
 Chulkov, M. H. Bani-Hashemian, V. Weber, U. Borstnik, M. Taillefumier, A. S. 
 Jakobovits, A. Lazzaro, H. Pabst, T. Mueller, R. Schade, M. Guidon, S. 
 Andermatt, N. Holmberg, G. K. Schenter, A. Hehn, A. Bussy, F. Belleflamme, G. 
 Tabacchi, A. Gloess, M. Lass, I. Bethune, C. J. Mundy, C. Plessl, M. Watkins, 
 J. VandeVondele, M. Krack, J. Hutter.
 J. Chem. Phys. 152, 194103 (2020).
 CP2K: An electronic structure and molecular dynamics software package - 
 Quickstep: Efficient and accurate electronic structure calculations.
 https://doi.org/10.1063/5.0007045

 A. Togo, I. Tanaka.
 arXiv, 1808.01590 (2018).
 Spglib : a software library for crystal symmetry search.

 O. Schuett, P. Messmer, J. Hutter, J. VandeVondele.
 Electronic Structure Calculations on Graphics Processing Units, 173-190 (2016).
 GPU-Accelerated Sparse Matrix-Matrix Multiplication for Linear Scaling Density 
 Functional Theory.
 https://doi.org/10.1002/9781118670712.ch8

 A. Heinecke, G. Henry, M. Hutchinson, H. Pabst.
 Proceedings of Intl. Supercomputing Conference, 981-991 (2016).
 LIBXSMM: Accelerating Small Matrix Multiplications by Runtime Code Generation.
 https://doi.org/10.1109/SC.2016.83

 J. Hutter, M. Iannuzzi, F. Schiffmann, J. VandeVondele.
 WIREs Comput Mol Sci. 4, 15-25 (2014).
 CP2K: atomistic simulations of condensed matter systems.
 https://doi.org/10.1002/wcms.1159

 U. Borstnik, J. VandeVondele, V. Weber, J. Hutter.
 Parallel Comput. 40, 47-58 (2014).
 Sparse matrix multiplication: The distributed block-compressed sparse row 
 library.
 https://doi.org/10.1016/j.parco.2014.03.012

 A. Marek, V. Blum, R. Johanni, V. Havu, B. Lang, T. Auckenthaler, A. Heinecke, 
 H. Bungartz, H. Lederer.
 J. Phys. Condens. Matter 26, 213201 (2014).
 The ELPA library: scalable parallel eigenvalue solutions for electronic 
 structure theory and computational science.
 https://doi.org/10.1088/0953-8984/26/21/213201

 J. VandeVondele, J. Hutter.
 J. Chem. Phys. 127, 114105 (2007).
 Gaussian basis sets for accurate calculations on molecular systems in gas and 
 condensed phases.
 https://doi.org/10.1063/1.2770708

 M. Krack.
 Theor. Chem. Acc. 114, 145-152 (2005).
 Pseudopotentials for H to Kr optimized for gradient-corrected 
 exchange-correlation functionals.
 https://doi.org/10.1007/s00214-005-0655-y

 M. Frigo, S. G. Johnson.
 Proc. IEEE 93, 216-231 (2005).
 The design and implementation of FFTW3.
 https://doi.org/10.1109/JPROC.2004.840301

 M. Krack, M. Parrinello.
 Phys. Chem. Chem. Phys. 2, 2105-2112 (2000).
 All-electron ab-initio molecular dynamics.
 https://doi.org/10.1039/b001167n

 G. Lippert, J. Hutter, M. Parrinello.
 Theor. Chem. Acc. 103, 124-140 (1999).
 The Gaussian and augmented-plane-wave density functional method for ab initio 
 molecular dynamics simulations.
 https://doi.org/10.1007/s002140050523

 C. Hartwigsen, S. Goedecker, J. Hutter.
 Phys. Rev. B 58, 3641-3662 (1998).
 Relativistic separable dual-space Gaussian pseudopotentials from H to Rn.
 https://doi.org/10.1103/PhysRevB.58.3641

 S. Goedecker, M. Teter, J. Hutter.
 Phys. Rev. B 54, 1703-1710 (1996).
 Separable dual-space Gaussian pseudopotentials.
 https://doi.org/10.1103/PhysRevB.54.1703

 J. P. Perdew, K. Burke, M. Ernzerhof.
 Phys. Rev. Lett. 77, 3865-3868 (1996).
 Generalized gradient approximation made simple.
 https://doi.org/10.1103/PhysRevLett.77.3865


 -------------------------------------------------------------------------------
 -                                                                             -
 -                                T I M I N G                                  -
 -                                                                             -
 -------------------------------------------------------------------------------
 SUBROUTINE                       CALLS  ASD         SELF TIME        TOTAL TIME
                                MAXIMUM       AVERAGE  MAXIMUM  AVERAGE  MAXIMUM
 CP2K                                 1  1.0    0.005    0.017  213.205  213.207
 qs_energies                          1  2.0    0.003    0.061  212.994  213.052
 scf_env_do_scf                       1  3.0    0.000    0.000  202.582  202.587
 scf_env_do_scf_inner_loop           50  4.0    0.005    0.006  202.582  202.587
 do_general_diag_kp                  51  5.9    0.153    0.160  201.684  201.719
 qs_scf_new_mos_kp                   50  5.0    0.000    0.000  192.735  192.769
 kpoint_density_transform            50  7.0    0.056    0.058   65.515   65.591
 cp_fm_start_copy_general         87044  7.3    3.449    4.161   58.237   58.685
 mp_allgather_i                  174088  8.3   52.444   52.947   52.444   52.947
 cp_cfm_geeig                       611  6.2    0.004    0.004   43.158   43.906
 mp_alltoall_i22                 204546  8.8   28.439   42.143   28.439   42.143
 dbcsr_complete_redistribute      87551  8.3    4.914    5.959   32.900   37.583
 cp_cfm_heevd                       611  7.2    0.001    0.001   34.784   35.468
 cp_cfm_heevd_base                  611  8.2   34.783   35.468   34.783   35.468
 dbcsr_desymmetrize_deep         116995  7.5    1.438    1.736   23.304   32.194
 copy_dbcsr_to_fm                 58751  7.0    0.315    0.330   27.354   28.685
 rskp_transform                   29122  7.0   15.300   26.432   15.300   26.432
 copy_fm_to_dbcsr                 28800  8.0    0.099    0.107   15.891   20.294
 transform_dmat                   14400  8.0    7.546   13.211    7.546   13.211
 cp_fm_finish_copy_general        31244  7.9    9.982   10.483   10.014   10.513
 dbcsr_finalize                  207854  8.8    0.579    0.608    6.420    7.180
 dbcsr_merge_all                  87551 10.3    1.240    1.704    4.231    5.034
 qs_ks_update_qs_env                 50  5.0    0.000    0.000    4.833    4.859
 cp_cfm_triangular_multiply        1833  7.2    4.594    4.732    4.594    4.732
 kpoint_set_mo_occupation            50  7.0    2.701    2.728    4.130    4.673
 rebuild_ks_matrix                   50  6.0    0.000    0.000    4.615    4.642
 qs_ks_build_kohn_sham_matrix        50  7.0    0.011    0.012    4.615    4.642
 mp_cart_sub                     117506  9.0    4.443    4.462    4.443    4.462
 mp_alltoall_d11v                613739  9.4    3.794    4.389    3.794    4.389
 -------------------------------------------------------------------------------

 The number of warnings for this run is : 1
 
 -------------------------------------------------------------------------------
  **** **** ******  **  PROGRAM ENDED AT                 2025-05-07 12:27:23.531
 ***** ** ***  *** **   PROGRAM RAN ON                                  n2cn0657
 **    ****   ******    PROGRAM RAN BY                                  metdyn06
 ***** **    ** ** **   PROGRAM PROCESS ID                               2681922
  **** **  *******  **  PROGRAM STOPPED IN /scratch/hpc-prf-metdyn/metdyn06_Bibe
                                           k/Research/cp2k/bi2te3_final/KGKp/bas
                                           is-set-test/basis-molopt-uzh/dzvp
