SIRIUS 7.6.1, git hash: https://api.github.com/repos/electronic-structure/SIRIUS/git/ref/tags/v7.6.1
 DBCSR| CPU Multiplication driver                                           XSMM (U)
 DBCSR| Multrec recursion limit                                              512 (U)
 DBCSR| Multiplication stack size                                           1000 (D)
 DBCSR| Maximum elements for images                                    UNLIMITED (U)
 DBCSR| Multiplicative factor virtual images                                   1 (U)
 DBCSR| Use multiplication densification                                       T (D)
 DBCSR| Multiplication size stacks                                             3 (U)
 DBCSR| Use memory pool for CPU allocation                                     F (U)
 DBCSR| Number of 3D layers                                               SINGLE (U)
 DBCSR| Use MPI memory allocation                                              F (U)
 DBCSR| Use RMA algorithm                                                      F (U)
 DBCSR| Use Communication thread                                               T (U)
 DBCSR| Communication thread load                                             30 (D)
 DBCSR| MPI: My process id                                                     0
 DBCSR| MPI: Number of processes                                              32
 DBCSR| OMP: Current number of threads                                        16
 DBCSR| OMP: Max number of threads                                            16
 DBCSR| Split modifier for TAS multiplication algorithm                  1.0E+00 (U)


  **** **** ******  **  PROGRAM STARTED AT               2025-05-07 12:24:39.416
 ***** ** ***  *** **   PROGRAM STARTED ON                 n2cn0807.ab2021.local
 **    ****   ******    PROGRAM STARTED BY                              metdyn06
 ***** **    ** ** **   PROGRAM PROCESS ID                               1274974
  **** **  *******  **  PROGRAM STARTED IN /scratch/hpc-prf-metdyn/metdyn06_Bibe
                                           k/Research/cp2k/bi2te3_final/KGKp/bas
                                           is-set-test/basis-molopt-uzh/tzvp

 CP2K| version string:                 CP2K version 2025.1 (Development Version)
 CP2K| source code revision number:                                  git:8da3cac
 CP2K| cp2kflags: omp libint fftw3 libxc libgrpp elpa parallel scalapack mpi_f08
 CP2K|             cosma xsmm plumed2 spglib sirius libvori libbqb libvdwxc hdf5
 CP2K| is freely available from                            https://www.cp2k.org/
 CP2K| Program compiled at                         Thu Apr  3 15:24:46 CEST 2025
 CP2K| Program compiled on                                              n2login6
 CP2K| Program compiled for                                                local
 CP2K| Data directory path    /opt/software/pc2/EB-SW/software/CP2K/2024.1-foss-
 CP2K| Input file name                                                  cp2k.inp

 GLOBAL| Force Environment number                                              1
 GLOBAL| Basis set file name            /pc2/groups/hpc-prf-metdyn/metdyn06_Bibe
 GLOBAL| Potential file name            /pc2/groups/hpc-prf-metdyn/metdyn06_Bibe
 GLOBAL| MM Potential file name                                     MM_POTENTIAL
 GLOBAL| Coordinate file name                                      __STD_INPUT__
 GLOBAL| Method name                                                        CP2K
 GLOBAL| Project name                                                     Bi2Te3
 GLOBAL| Run type                                                         ENERGY
 GLOBAL| FFT library                                                       FFTW3
 GLOBAL| Diagonalization library                                            ELPA
 GLOBAL| DGEMM library                                                      BLAS
 GLOBAL| Minimum number of eigenvectors for ELPA usage                        16
 GLOBAL| Orthonormality check for eigenvectors                          DISABLED
 GLOBAL| Matrix multiplication library                                     COSMA
 GLOBAL| All-to-all communication in single precision                          F
 GLOBAL| FFTs using library dependent lengths                                  T
 GLOBAL| Grid backend                                                       AUTO
 GLOBAL| Global print level                                               MEDIUM
 GLOBAL| MPI I/O enabled                                                       T
 GLOBAL| Total number of message passing processes                            32
 GLOBAL| Number of threads for this process                                   16
 GLOBAL| This output is from process                                           0
 GLOBAL| OpenMP stack size per thread (OMP_STACKSIZE)                    default
 GLOBAL| CPU model name                          AMD EPYC 7763 64-Core Processor
 GLOBAL| CPUID                                                              1002

 MEMORY| system memory details [Kb]
 MEMORY|                        rank 0           min           max       average
 MEMORY| MemTotal            263899256     263899256     263899264     263899260
 MEMORY| MemFree             246939668     246939668     251446532     249071663
 MEMORY| Buffers                200368         41748        325644        175046
 MEMORY| Cached                8308984       5595812       8308984       6769967
 MEMORY| Slab                  2252016       1802864       2706956       2173134
 MEMORY| SReclaimable           409284        263848        612476        402384
 MEMORY| MemLikelyFree       255858304     255340984     257347940     256419060


 *** Fundamental physical constants (SI units) ***

 *** Literature: B. J. Mohr and B. N. Taylor,
 ***             CODATA recommended values of the fundamental physical
 ***             constants: 2006, Web Version 5.1
 ***             http://physics.nist.gov/constants

 Speed of light in vacuum [m/s]                             2.99792458000000E+08
 Magnetic constant or permeability of vacuum [N/A**2]       1.25663706143592E-06
 Electric constant or permittivity of vacuum [F/m]          8.85418781762039E-12
 Planck constant (h) [J*s]                                  6.62606896000000E-34
 Planck constant (h-bar) [J*s]                              1.05457162825177E-34
 Elementary charge [C]                                      1.60217648700000E-19
 Electron mass [kg]                                         9.10938215000000E-31
 Electron g factor [ ]                                     -2.00231930436220E+00
 Proton mass [kg]                                           1.67262163700000E-27
 Fine-structure constant                                    7.29735253760000E-03
 Rydberg constant [1/m]                                     1.09737315685270E+07
 Avogadro constant [1/mol]                                  6.02214179000000E+23
 Boltzmann constant [J/K]                                   1.38065040000000E-23
 Atomic mass unit [kg]                                      1.66053878200000E-27
 Bohr radius [m]                                            5.29177208590000E-11

 *** Conversion factors ***

 [u] -> [a.u.]                                              1.82288848426455E+03
 [Angstrom] -> [Bohr] = [a.u.]                              1.88972613288564E+00
 [a.u.] = [Bohr] -> [Angstrom]                              5.29177208590000E-01
 [a.u.] -> [s]                                              2.41888432650478E-17
 [a.u.] -> [fs]                                             2.41888432650478E-02
 [a.u.] -> [J]                                              4.35974393937059E-18
 [a.u.] -> [N]                                              8.23872205491840E-08
 [a.u.] -> [K]                                              3.15774647902944E+05
 [a.u.] -> [kJ/mol]                                         2.62549961709828E+03
 [a.u.] -> [kcal/mol]                                       6.27509468713739E+02
 [a.u.] -> [Pa]                                             2.94210107994716E+13
 [a.u.] -> [bar]                                            2.94210107994716E+08
 [a.u.] -> [atm]                                            2.90362800883016E+08
 [a.u.] -> [eV]                                             2.72113838565563E+01
 [a.u.] -> [Hz]                                             6.57968392072181E+15
 [a.u.] -> [1/cm] (wave numbers)                            2.19474631370540E+05
 [a.u./Bohr**2] -> [1/cm]                                   5.14048714338585E+03
 

 CELL_TOP| Volume [angstrom^3]:                                      2028.489998
 CELL_TOP| Vector a [angstrom     4.386     0.000     0.000   |a| =     4.386002
 CELL_TOP| Vector b [angstrom    -2.193     3.798     0.000   |b| =     4.386002
 CELL_TOP| Vector c [angstrom    -0.000     0.000   121.760   |c| =   121.760000
 CELL_TOP| Angle (b,c), alpha [degree]:                                90.000000
 CELL_TOP| Angle (a,c), beta  [degree]:                                90.000000
 CELL_TOP| Angle (a,b), gamma [degree]:                               120.000000
 CELL_TOP| Numerically orthorhombic:                                          NO
 CELL_TOP| Periodicity                                                        XY

 GENERATE|  Preliminary Number of Bonds generated:                             0
 GENERATE|  Achieved consistency in connectivity generation.

 CELL| Volume [angstrom^3]:                                          2028.489998
 CELL| Vector a [angstrom]:       4.386     0.000     0.000   |a| =     4.386002
 CELL| Vector b [angstrom]:      -2.193     3.798     0.000   |b| =     4.386002
 CELL| Vector c [angstrom]:      -0.000     0.000   121.760   |c| =   121.760000
 CELL| Angle (b,c), alpha [degree]:                                    90.000000
 CELL| Angle (a,c), beta  [degree]:                                    90.000000
 CELL| Angle (a,b), gamma [degree]:                                   120.000000
 CELL| Numerically orthorhombic:                                              NO
 CELL| Periodicity                                                            XY

 CELL_REF| Volume [angstrom^3]:                                      2028.489998
 CELL_REF| Vector a [angstrom     4.386     0.000     0.000   |a| =     4.386002
 CELL_REF| Vector b [angstrom    -2.193     3.798     0.000   |b| =     4.386002
 CELL_REF| Vector c [angstrom    -0.000     0.000   121.760   |c| =   121.760000
 CELL_REF| Angle (b,c), alpha [degree]:                                90.000000
 CELL_REF| Angle (a,c), beta  [degree]:                                90.000000
 CELL_REF| Angle (a,b), gamma [degree]:                               120.000000
 CELL_REF| Numerically orthorhombic:                                          NO
 CELL_REF| Periodicity                                                        XY

 *******************************************************************************
                                    Kpoints
 *******************************************************************************
 BRILLOUIN| K-point scheme                                        Monkhorst-Pack
 BRILLOUIN| K-Point grid                                            24   24    1
 BRILLOUIN| Accuracy in Symmetry determination                      0.100000E-05
 BRILLOUIN| K-Point point group symmetrization                               OFF
 BRILLOUIN| Wavefunction type                                            COMPLEX
 BRILLOUIN| List of Kpoints [2 Pi/Bohr]                                      288
 BRILLOUIN| Number           Weight            X              Y              Z
 BRILLOUIN|     1           0.00347       -0.47917       -0.47917        0.00000
 BRILLOUIN|     2           0.00347       -0.47917       -0.43750        0.00000
 BRILLOUIN|     3           0.00347       -0.47917       -0.39583        0.00000
 BRILLOUIN|     4           0.00347       -0.47917       -0.35417        0.00000
 BRILLOUIN|     5           0.00347       -0.47917       -0.31250        0.00000
 BRILLOUIN|     6           0.00347       -0.47917       -0.27083        0.00000
 BRILLOUIN|     7           0.00347       -0.47917       -0.22917        0.00000
 BRILLOUIN|     8           0.00347       -0.47917       -0.18750        0.00000
 BRILLOUIN|     9           0.00347       -0.47917       -0.14583        0.00000
 BRILLOUIN|    10           0.00347       -0.47917       -0.10417        0.00000
 BRILLOUIN|    11           0.00347       -0.47917       -0.06250        0.00000
 BRILLOUIN|    12           0.00347       -0.47917       -0.02083        0.00000
 BRILLOUIN|    13           0.00347       -0.47917        0.02083        0.00000
 BRILLOUIN|    14           0.00347       -0.47917        0.06250        0.00000
 BRILLOUIN|    15           0.00347       -0.47917        0.10417        0.00000
 BRILLOUIN|    16           0.00347       -0.47917        0.14583        0.00000
 BRILLOUIN|    17           0.00347       -0.47917        0.18750        0.00000
 BRILLOUIN|    18           0.00347       -0.47917        0.22917        0.00000
 BRILLOUIN|    19           0.00347       -0.47917        0.27083        0.00000
 BRILLOUIN|    20           0.00347       -0.47917        0.31250        0.00000
 BRILLOUIN|    21           0.00347       -0.47917        0.35417        0.00000
 BRILLOUIN|    22           0.00347       -0.47917        0.39583        0.00000
 BRILLOUIN|    23           0.00347       -0.47917        0.43750        0.00000
 BRILLOUIN|    24           0.00347       -0.47917        0.47917        0.00000
 BRILLOUIN|    25           0.00347       -0.43750       -0.47917        0.00000
 BRILLOUIN|    26           0.00347       -0.43750       -0.43750        0.00000
 BRILLOUIN|    27           0.00347       -0.43750       -0.39583        0.00000
 BRILLOUIN|    28           0.00347       -0.43750       -0.35417        0.00000
 BRILLOUIN|    29           0.00347       -0.43750       -0.31250        0.00000
 BRILLOUIN|    30           0.00347       -0.43750       -0.27083        0.00000
 BRILLOUIN|    31           0.00347       -0.43750       -0.22917        0.00000
 BRILLOUIN|    32           0.00347       -0.43750       -0.18750        0.00000
 BRILLOUIN|    33           0.00347       -0.43750       -0.14583        0.00000
 BRILLOUIN|    34           0.00347       -0.43750       -0.10417        0.00000
 BRILLOUIN|    35           0.00347       -0.43750       -0.06250        0.00000
 BRILLOUIN|    36           0.00347       -0.43750       -0.02083        0.00000
 BRILLOUIN|    37           0.00347       -0.43750        0.02083        0.00000
 BRILLOUIN|    38           0.00347       -0.43750        0.06250        0.00000
 BRILLOUIN|    39           0.00347       -0.43750        0.10417        0.00000
 BRILLOUIN|    40           0.00347       -0.43750        0.14583        0.00000
 BRILLOUIN|    41           0.00347       -0.43750        0.18750        0.00000
 BRILLOUIN|    42           0.00347       -0.43750        0.22917        0.00000
 BRILLOUIN|    43           0.00347       -0.43750        0.27083        0.00000
 BRILLOUIN|    44           0.00347       -0.43750        0.31250        0.00000
 BRILLOUIN|    45           0.00347       -0.43750        0.35417        0.00000
 BRILLOUIN|    46           0.00347       -0.43750        0.39583        0.00000
 BRILLOUIN|    47           0.00347       -0.43750        0.43750        0.00000
 BRILLOUIN|    48           0.00347       -0.43750        0.47917        0.00000
 BRILLOUIN|    49           0.00347       -0.39583       -0.47917        0.00000
 BRILLOUIN|    50           0.00347       -0.39583       -0.43750        0.00000
 BRILLOUIN|    51           0.00347       -0.39583       -0.39583        0.00000
 BRILLOUIN|    52           0.00347       -0.39583       -0.35417        0.00000
 BRILLOUIN|    53           0.00347       -0.39583       -0.31250        0.00000
 BRILLOUIN|    54           0.00347       -0.39583       -0.27083        0.00000
 BRILLOUIN|    55           0.00347       -0.39583       -0.22917        0.00000
 BRILLOUIN|    56           0.00347       -0.39583       -0.18750        0.00000
 BRILLOUIN|    57           0.00347       -0.39583       -0.14583        0.00000
 BRILLOUIN|    58           0.00347       -0.39583       -0.10417        0.00000
 BRILLOUIN|    59           0.00347       -0.39583       -0.06250        0.00000
 BRILLOUIN|    60           0.00347       -0.39583       -0.02083        0.00000
 BRILLOUIN|    61           0.00347       -0.39583        0.02083        0.00000
 BRILLOUIN|    62           0.00347       -0.39583        0.06250        0.00000
 BRILLOUIN|    63           0.00347       -0.39583        0.10417        0.00000
 BRILLOUIN|    64           0.00347       -0.39583        0.14583        0.00000
 BRILLOUIN|    65           0.00347       -0.39583        0.18750        0.00000
 BRILLOUIN|    66           0.00347       -0.39583        0.22917        0.00000
 BRILLOUIN|    67           0.00347       -0.39583        0.27083        0.00000
 BRILLOUIN|    68           0.00347       -0.39583        0.31250        0.00000
 BRILLOUIN|    69           0.00347       -0.39583        0.35417        0.00000
 BRILLOUIN|    70           0.00347       -0.39583        0.39583        0.00000
 BRILLOUIN|    71           0.00347       -0.39583        0.43750        0.00000
 BRILLOUIN|    72           0.00347       -0.39583        0.47917        0.00000
 BRILLOUIN|    73           0.00347       -0.35417       -0.47917        0.00000
 BRILLOUIN|    74           0.00347       -0.35417       -0.43750        0.00000
 BRILLOUIN|    75           0.00347       -0.35417       -0.39583        0.00000
 BRILLOUIN|    76           0.00347       -0.35417       -0.35417        0.00000
 BRILLOUIN|    77           0.00347       -0.35417       -0.31250        0.00000
 BRILLOUIN|    78           0.00347       -0.35417       -0.27083        0.00000
 BRILLOUIN|    79           0.00347       -0.35417       -0.22917        0.00000
 BRILLOUIN|    80           0.00347       -0.35417       -0.18750        0.00000
 BRILLOUIN|    81           0.00347       -0.35417       -0.14583        0.00000
 BRILLOUIN|    82           0.00347       -0.35417       -0.10417        0.00000
 BRILLOUIN|    83           0.00347       -0.35417       -0.06250        0.00000
 BRILLOUIN|    84           0.00347       -0.35417       -0.02083        0.00000
 BRILLOUIN|    85           0.00347       -0.35417        0.02083        0.00000
 BRILLOUIN|    86           0.00347       -0.35417        0.06250        0.00000
 BRILLOUIN|    87           0.00347       -0.35417        0.10417        0.00000
 BRILLOUIN|    88           0.00347       -0.35417        0.14583        0.00000
 BRILLOUIN|    89           0.00347       -0.35417        0.18750        0.00000
 BRILLOUIN|    90           0.00347       -0.35417        0.22917        0.00000
 BRILLOUIN|    91           0.00347       -0.35417        0.27083        0.00000
 BRILLOUIN|    92           0.00347       -0.35417        0.31250        0.00000
 BRILLOUIN|    93           0.00347       -0.35417        0.35417        0.00000
 BRILLOUIN|    94           0.00347       -0.35417        0.39583        0.00000
 BRILLOUIN|    95           0.00347       -0.35417        0.43750        0.00000
 BRILLOUIN|    96           0.00347       -0.35417        0.47917        0.00000
 BRILLOUIN|    97           0.00347       -0.31250       -0.47917        0.00000
 BRILLOUIN|    98           0.00347       -0.31250       -0.43750        0.00000
 BRILLOUIN|    99           0.00347       -0.31250       -0.39583        0.00000
 BRILLOUIN|   100           0.00347       -0.31250       -0.35417        0.00000
 BRILLOUIN|   101           0.00347       -0.31250       -0.31250        0.00000
 BRILLOUIN|   102           0.00347       -0.31250       -0.27083        0.00000
 BRILLOUIN|   103           0.00347       -0.31250       -0.22917        0.00000
 BRILLOUIN|   104           0.00347       -0.31250       -0.18750        0.00000
 BRILLOUIN|   105           0.00347       -0.31250       -0.14583        0.00000
 BRILLOUIN|   106           0.00347       -0.31250       -0.10417        0.00000
 BRILLOUIN|   107           0.00347       -0.31250       -0.06250        0.00000
 BRILLOUIN|   108           0.00347       -0.31250       -0.02083        0.00000
 BRILLOUIN|   109           0.00347       -0.31250        0.02083        0.00000
 BRILLOUIN|   110           0.00347       -0.31250        0.06250        0.00000
 BRILLOUIN|   111           0.00347       -0.31250        0.10417        0.00000
 BRILLOUIN|   112           0.00347       -0.31250        0.14583        0.00000
 BRILLOUIN|   113           0.00347       -0.31250        0.18750        0.00000
 BRILLOUIN|   114           0.00347       -0.31250        0.22917        0.00000
 BRILLOUIN|   115           0.00347       -0.31250        0.27083        0.00000
 BRILLOUIN|   116           0.00347       -0.31250        0.31250        0.00000
 BRILLOUIN|   117           0.00347       -0.31250        0.35417        0.00000
 BRILLOUIN|   118           0.00347       -0.31250        0.39583        0.00000
 BRILLOUIN|   119           0.00347       -0.31250        0.43750        0.00000
 BRILLOUIN|   120           0.00347       -0.31250        0.47917        0.00000
 BRILLOUIN|   121           0.00347       -0.27083       -0.47917        0.00000
 BRILLOUIN|   122           0.00347       -0.27083       -0.43750        0.00000
 BRILLOUIN|   123           0.00347       -0.27083       -0.39583        0.00000
 BRILLOUIN|   124           0.00347       -0.27083       -0.35417        0.00000
 BRILLOUIN|   125           0.00347       -0.27083       -0.31250        0.00000
 BRILLOUIN|   126           0.00347       -0.27083       -0.27083        0.00000
 BRILLOUIN|   127           0.00347       -0.27083       -0.22917        0.00000
 BRILLOUIN|   128           0.00347       -0.27083       -0.18750        0.00000
 BRILLOUIN|   129           0.00347       -0.27083       -0.14583        0.00000
 BRILLOUIN|   130           0.00347       -0.27083       -0.10417        0.00000
 BRILLOUIN|   131           0.00347       -0.27083       -0.06250        0.00000
 BRILLOUIN|   132           0.00347       -0.27083       -0.02083        0.00000
 BRILLOUIN|   133           0.00347       -0.27083        0.02083        0.00000
 BRILLOUIN|   134           0.00347       -0.27083        0.06250        0.00000
 BRILLOUIN|   135           0.00347       -0.27083        0.10417        0.00000
 BRILLOUIN|   136           0.00347       -0.27083        0.14583        0.00000
 BRILLOUIN|   137           0.00347       -0.27083        0.18750        0.00000
 BRILLOUIN|   138           0.00347       -0.27083        0.22917        0.00000
 BRILLOUIN|   139           0.00347       -0.27083        0.27083        0.00000
 BRILLOUIN|   140           0.00347       -0.27083        0.31250        0.00000
 BRILLOUIN|   141           0.00347       -0.27083        0.35417        0.00000
 BRILLOUIN|   142           0.00347       -0.27083        0.39583        0.00000
 BRILLOUIN|   143           0.00347       -0.27083        0.43750        0.00000
 BRILLOUIN|   144           0.00347       -0.27083        0.47917        0.00000
 BRILLOUIN|   145           0.00347       -0.22917       -0.47917        0.00000
 BRILLOUIN|   146           0.00347       -0.22917       -0.43750        0.00000
 BRILLOUIN|   147           0.00347       -0.22917       -0.39583        0.00000
 BRILLOUIN|   148           0.00347       -0.22917       -0.35417        0.00000
 BRILLOUIN|   149           0.00347       -0.22917       -0.31250        0.00000
 BRILLOUIN|   150           0.00347       -0.22917       -0.27083        0.00000
 BRILLOUIN|   151           0.00347       -0.22917       -0.22917        0.00000
 BRILLOUIN|   152           0.00347       -0.22917       -0.18750        0.00000
 BRILLOUIN|   153           0.00347       -0.22917       -0.14583        0.00000
 BRILLOUIN|   154           0.00347       -0.22917       -0.10417        0.00000
 BRILLOUIN|   155           0.00347       -0.22917       -0.06250        0.00000
 BRILLOUIN|   156           0.00347       -0.22917       -0.02083        0.00000
 BRILLOUIN|   157           0.00347       -0.22917        0.02083        0.00000
 BRILLOUIN|   158           0.00347       -0.22917        0.06250        0.00000
 BRILLOUIN|   159           0.00347       -0.22917        0.10417        0.00000
 BRILLOUIN|   160           0.00347       -0.22917        0.14583        0.00000
 BRILLOUIN|   161           0.00347       -0.22917        0.18750        0.00000
 BRILLOUIN|   162           0.00347       -0.22917        0.22917        0.00000
 BRILLOUIN|   163           0.00347       -0.22917        0.27083        0.00000
 BRILLOUIN|   164           0.00347       -0.22917        0.31250        0.00000
 BRILLOUIN|   165           0.00347       -0.22917        0.35417        0.00000
 BRILLOUIN|   166           0.00347       -0.22917        0.39583        0.00000
 BRILLOUIN|   167           0.00347       -0.22917        0.43750        0.00000
 BRILLOUIN|   168           0.00347       -0.22917        0.47917        0.00000
 BRILLOUIN|   169           0.00347       -0.18750       -0.47917        0.00000
 BRILLOUIN|   170           0.00347       -0.18750       -0.43750        0.00000
 BRILLOUIN|   171           0.00347       -0.18750       -0.39583        0.00000
 BRILLOUIN|   172           0.00347       -0.18750       -0.35417        0.00000
 BRILLOUIN|   173           0.00347       -0.18750       -0.31250        0.00000
 BRILLOUIN|   174           0.00347       -0.18750       -0.27083        0.00000
 BRILLOUIN|   175           0.00347       -0.18750       -0.22917        0.00000
 BRILLOUIN|   176           0.00347       -0.18750       -0.18750        0.00000
 BRILLOUIN|   177           0.00347       -0.18750       -0.14583        0.00000
 BRILLOUIN|   178           0.00347       -0.18750       -0.10417        0.00000
 BRILLOUIN|   179           0.00347       -0.18750       -0.06250        0.00000
 BRILLOUIN|   180           0.00347       -0.18750       -0.02083        0.00000
 BRILLOUIN|   181           0.00347       -0.18750        0.02083        0.00000
 BRILLOUIN|   182           0.00347       -0.18750        0.06250        0.00000
 BRILLOUIN|   183           0.00347       -0.18750        0.10417        0.00000
 BRILLOUIN|   184           0.00347       -0.18750        0.14583        0.00000
 BRILLOUIN|   185           0.00347       -0.18750        0.18750        0.00000
 BRILLOUIN|   186           0.00347       -0.18750        0.22917        0.00000
 BRILLOUIN|   187           0.00347       -0.18750        0.27083        0.00000
 BRILLOUIN|   188           0.00347       -0.18750        0.31250        0.00000
 BRILLOUIN|   189           0.00347       -0.18750        0.35417        0.00000
 BRILLOUIN|   190           0.00347       -0.18750        0.39583        0.00000
 BRILLOUIN|   191           0.00347       -0.18750        0.43750        0.00000
 BRILLOUIN|   192           0.00347       -0.18750        0.47917        0.00000
 BRILLOUIN|   193           0.00347       -0.14583       -0.47917        0.00000
 BRILLOUIN|   194           0.00347       -0.14583       -0.43750        0.00000
 BRILLOUIN|   195           0.00347       -0.14583       -0.39583        0.00000
 BRILLOUIN|   196           0.00347       -0.14583       -0.35417        0.00000
 BRILLOUIN|   197           0.00347       -0.14583       -0.31250        0.00000
 BRILLOUIN|   198           0.00347       -0.14583       -0.27083        0.00000
 BRILLOUIN|   199           0.00347       -0.14583       -0.22917        0.00000
 BRILLOUIN|   200           0.00347       -0.14583       -0.18750        0.00000
 BRILLOUIN|   201           0.00347       -0.14583       -0.14583        0.00000
 BRILLOUIN|   202           0.00347       -0.14583       -0.10417        0.00000
 BRILLOUIN|   203           0.00347       -0.14583       -0.06250        0.00000
 BRILLOUIN|   204           0.00347       -0.14583       -0.02083        0.00000
 BRILLOUIN|   205           0.00347       -0.14583        0.02083        0.00000
 BRILLOUIN|   206           0.00347       -0.14583        0.06250        0.00000
 BRILLOUIN|   207           0.00347       -0.14583        0.10417        0.00000
 BRILLOUIN|   208           0.00347       -0.14583        0.14583        0.00000
 BRILLOUIN|   209           0.00347       -0.14583        0.18750        0.00000
 BRILLOUIN|   210           0.00347       -0.14583        0.22917        0.00000
 BRILLOUIN|   211           0.00347       -0.14583        0.27083        0.00000
 BRILLOUIN|   212           0.00347       -0.14583        0.31250        0.00000
 BRILLOUIN|   213           0.00347       -0.14583        0.35417        0.00000
 BRILLOUIN|   214           0.00347       -0.14583        0.39583        0.00000
 BRILLOUIN|   215           0.00347       -0.14583        0.43750        0.00000
 BRILLOUIN|   216           0.00347       -0.14583        0.47917        0.00000
 BRILLOUIN|   217           0.00347       -0.10417       -0.47917        0.00000
 BRILLOUIN|   218           0.00347       -0.10417       -0.43750        0.00000
 BRILLOUIN|   219           0.00347       -0.10417       -0.39583        0.00000
 BRILLOUIN|   220           0.00347       -0.10417       -0.35417        0.00000
 BRILLOUIN|   221           0.00347       -0.10417       -0.31250        0.00000
 BRILLOUIN|   222           0.00347       -0.10417       -0.27083        0.00000
 BRILLOUIN|   223           0.00347       -0.10417       -0.22917        0.00000
 BRILLOUIN|   224           0.00347       -0.10417       -0.18750        0.00000
 BRILLOUIN|   225           0.00347       -0.10417       -0.14583        0.00000
 BRILLOUIN|   226           0.00347       -0.10417       -0.10417        0.00000
 BRILLOUIN|   227           0.00347       -0.10417       -0.06250        0.00000
 BRILLOUIN|   228           0.00347       -0.10417       -0.02083        0.00000
 BRILLOUIN|   229           0.00347       -0.10417        0.02083        0.00000
 BRILLOUIN|   230           0.00347       -0.10417        0.06250        0.00000
 BRILLOUIN|   231           0.00347       -0.10417        0.10417        0.00000
 BRILLOUIN|   232           0.00347       -0.10417        0.14583        0.00000
 BRILLOUIN|   233           0.00347       -0.10417        0.18750        0.00000
 BRILLOUIN|   234           0.00347       -0.10417        0.22917        0.00000
 BRILLOUIN|   235           0.00347       -0.10417        0.27083        0.00000
 BRILLOUIN|   236           0.00347       -0.10417        0.31250        0.00000
 BRILLOUIN|   237           0.00347       -0.10417        0.35417        0.00000
 BRILLOUIN|   238           0.00347       -0.10417        0.39583        0.00000
 BRILLOUIN|   239           0.00347       -0.10417        0.43750        0.00000
 BRILLOUIN|   240           0.00347       -0.10417        0.47917        0.00000
 BRILLOUIN|   241           0.00347       -0.06250       -0.47917        0.00000
 BRILLOUIN|   242           0.00347       -0.06250       -0.43750        0.00000
 BRILLOUIN|   243           0.00347       -0.06250       -0.39583        0.00000
 BRILLOUIN|   244           0.00347       -0.06250       -0.35417        0.00000
 BRILLOUIN|   245           0.00347       -0.06250       -0.31250        0.00000
 BRILLOUIN|   246           0.00347       -0.06250       -0.27083        0.00000
 BRILLOUIN|   247           0.00347       -0.06250       -0.22917        0.00000
 BRILLOUIN|   248           0.00347       -0.06250       -0.18750        0.00000
 BRILLOUIN|   249           0.00347       -0.06250       -0.14583        0.00000
 BRILLOUIN|   250           0.00347       -0.06250       -0.10417        0.00000
 BRILLOUIN|   251           0.00347       -0.06250       -0.06250        0.00000
 BRILLOUIN|   252           0.00347       -0.06250       -0.02083        0.00000
 BRILLOUIN|   253           0.00347       -0.06250        0.02083        0.00000
 BRILLOUIN|   254           0.00347       -0.06250        0.06250        0.00000
 BRILLOUIN|   255           0.00347       -0.06250        0.10417        0.00000
 BRILLOUIN|   256           0.00347       -0.06250        0.14583        0.00000
 BRILLOUIN|   257           0.00347       -0.06250        0.18750        0.00000
 BRILLOUIN|   258           0.00347       -0.06250        0.22917        0.00000
 BRILLOUIN|   259           0.00347       -0.06250        0.27083        0.00000
 BRILLOUIN|   260           0.00347       -0.06250        0.31250        0.00000
 BRILLOUIN|   261           0.00347       -0.06250        0.35417        0.00000
 BRILLOUIN|   262           0.00347       -0.06250        0.39583        0.00000
 BRILLOUIN|   263           0.00347       -0.06250        0.43750        0.00000
 BRILLOUIN|   264           0.00347       -0.06250        0.47917        0.00000
 BRILLOUIN|   265           0.00347       -0.02083       -0.47917        0.00000
 BRILLOUIN|   266           0.00347       -0.02083       -0.43750        0.00000
 BRILLOUIN|   267           0.00347       -0.02083       -0.39583        0.00000
 BRILLOUIN|   268           0.00347       -0.02083       -0.35417        0.00000
 BRILLOUIN|   269           0.00347       -0.02083       -0.31250        0.00000
 BRILLOUIN|   270           0.00347       -0.02083       -0.27083        0.00000
 BRILLOUIN|   271           0.00347       -0.02083       -0.22917        0.00000
 BRILLOUIN|   272           0.00347       -0.02083       -0.18750        0.00000
 BRILLOUIN|   273           0.00347       -0.02083       -0.14583        0.00000
 BRILLOUIN|   274           0.00347       -0.02083       -0.10417        0.00000
 BRILLOUIN|   275           0.00347       -0.02083       -0.06250        0.00000
 BRILLOUIN|   276           0.00347       -0.02083       -0.02083        0.00000
 BRILLOUIN|   277           0.00347       -0.02083        0.02083        0.00000
 BRILLOUIN|   278           0.00347       -0.02083        0.06250        0.00000
 BRILLOUIN|   279           0.00347       -0.02083        0.10417        0.00000
 BRILLOUIN|   280           0.00347       -0.02083        0.14583        0.00000
 BRILLOUIN|   281           0.00347       -0.02083        0.18750        0.00000
 BRILLOUIN|   282           0.00347       -0.02083        0.22917        0.00000
 BRILLOUIN|   283           0.00347       -0.02083        0.27083        0.00000
 BRILLOUIN|   284           0.00347       -0.02083        0.31250        0.00000
 BRILLOUIN|   285           0.00347       -0.02083        0.35417        0.00000
 BRILLOUIN|   286           0.00347       -0.02083        0.39583        0.00000
 BRILLOUIN|   287           0.00347       -0.02083        0.43750        0.00000
 BRILLOUIN|   288           0.00347       -0.02083        0.47917        0.00000
 *******************************************************************************

 *******************************************************************************
 *******************************************************************************
 **                                                                           **
 **     #####                         ##              ##                      **
 **    ##   ##            ##          ##              ##                      **
 **   ##     ##                       ##            ######                    **
 **   ##     ##  ##   ##  ##   #####  ##  ##   ####   ##    #####    #####    **
 **   ##     ##  ##   ##  ##  ##      ## ##   ##      ##   ##   ##  ##   ##   **
 **   ##  ## ##  ##   ##  ##  ##      ####     ###    ##   ######   ######    **
 **    ##  ###   ##   ##  ##  ##      ## ##      ##   ##   ##       ##        **
 **     #######   #####   ##   #####  ##  ##  ####    ##    #####   ##        **
 **           ##                                                    ##        **
 **                                                                           **
 **                                                ... make the atoms dance   **
 **                                                                           **
 **            Copyright (C) by CP2K developers group (2000-2025)             **
 **                      J. Chem. Phys. 152, 194103 (2020)                    **
 **                                                                           **
 *******************************************************************************

 DFT| Spin restricted Kohn-Sham (RKS) calculation                            RKS
 DFT| Multiplicity                                                             1
 DFT| Number of spin states                                                    1
 DFT| Charge                                                                   0
 DFT| Self-interaction correction (SIC)                                       NO
 DFT| Cutoffs: density                                              1.000000E-10
 DFT|          gradient                                             1.000000E-10
 DFT|          tau                                                  1.000000E-10
 DFT|          cutoff_smoothing_range                               0.000000E+00
 DFT| XC density smoothing                                                  NONE
 DFT| XC derivatives                                                          PW

 FUNCTIONAL| PBE:
 FUNCTIONAL| J.P.Perdew, K.Burke, M.Ernzerhof, Phys. Rev. Letter, vol. 77, n 18,
 FUNCTIONAL|  pp. 3865-3868, (1996) {spin unpolarized}                          


 QS| Method:                                                                GAPW
 QS| Density plane wave grid type                        NON-SPHERICAL FULLSPACE
 QS| Number of grid levels:                                                    4
 QS| Density cutoff [a.u.]:                                                250.0
 QS| Multi grid cutoff [a.u.]: 1) grid level                               250.0
 QS|                           2) grid level                                83.3
 QS|                           3) grid level                                27.8
 QS|                           4) grid level                                 9.3
 QS| Grid level progression factor:                                          3.0
 QS| Relative density cutoff [a.u.]:                                        50.0
 QS| Interaction thresholds: eps_pgf_orb:                                1.0E-12
 QS|                         eps_filter_matrix:                          0.0E+00
 QS|                         eps_core_charge:                            1.0E-14
 QS|                         eps_rho_gspace:                             1.0E-12
 QS|                         eps_rho_rspace:                             1.0E-12
 QS|                         eps_gvg_rspace:                             1.0E-06
 QS|                         eps_ppl:                                    1.0E-02
 QS|                         eps_ppnl:                                   1.0E-08
 QS| GAPW|      One center basis from orbital basis primitives
 QS| GAPW|                   eps_fit:                                    1.0E-04
 QS| GAPW|                   eps_iso:                                    1.0E-12
 QS| GAPW|                   eps_svd:                                    1.0E-08
 QS| GAPW|                   eps_cpc:                                    1.0E-12
 QS| GAPW|   atom-r-grid: quadrature:                                     GC_LOG
 QS| GAPW|      atom-s-grid:  max l :                                          4
 QS| GAPW|      max_l_rho0 :                                                   2
 QS| GAPW|      At least one kind is NOT PAW, i.e. it has only soft AO 
 QS| GAPW|      The NOT PAW atoms are treated fully GPW


 ATOMIC KIND INFORMATION

  1. Atomic kind: Bi                                    Number of atoms:      16

     Orbital Basis Set                                    TZVP-MOLOPT-PBE-GTH-q5

       Number of orbital shell sets:                                           1
       Number of orbital shells:                                               7
       Number of primitive Cartesian functions:                                5
       Number of Cartesian basis functions:                                   18
       Number of spherical basis functions:                                   17
       Norm type:                                                              2

       Normalised Cartesian orbitals:

                        Set   Shell   Orbital            Exponent    Coefficient

                          1       1    2s                1.476279      -0.997443
                                                         1.112852       1.652866
                                                         0.244984      -0.634635
                                                         0.105231       0.143008
                                                         0.041275       0.036970

                          1       2    3s                1.476279       0.075949
                                                         1.112852      -0.165741
                                                         0.244984       0.037757
                                                         0.105231       0.099805
                                                         0.041275       0.012494

                          1       3    4s                1.476279      -0.415974
                                                         1.112852       0.390055
                                                         0.244984       0.118363
                                                         0.105231       0.059838
                                                         0.041275      -0.093379

                          1       4    3px               1.476279      -0.495329
                                                         1.112852       0.914643
                                                         0.244984      -0.349921
                                                         0.105231       0.071240
                                                         0.041275       0.016319
                          1       4    3py               1.476279      -0.495329
                                                         1.112852       0.914643
                                                         0.244984      -0.349921
                                                         0.105231       0.071240
                                                         0.041275       0.016319
                          1       4    3pz               1.476279      -0.495329
                                                         1.112852       0.914643
                                                         0.244984      -0.349921
                                                         0.105231       0.071240
                                                         0.041275       0.016319

                          1       5    4px               1.476279       0.147718
                                                         1.112852      -0.270445
                                                         0.244984       0.086390
                                                         0.105231       0.049044
                                                         0.041275       0.005556
                          1       5    4py               1.476279       0.147718
                                                         1.112852      -0.270445
                                                         0.244984       0.086390
                                                         0.105231       0.049044
                                                         0.041275       0.005556
                          1       5    4pz               1.476279       0.147718
                                                         1.112852      -0.270445
                                                         0.244984       0.086390
                                                         0.105231       0.049044
                                                         0.041275       0.005556

                          1       6    5px               1.476279      -0.656714
                                                         1.112852       0.797077
                                                         0.244984       0.006850
                                                         0.105231       0.055940
                                                         0.041275      -0.036259
                          1       6    5py               1.476279      -0.656714
                                                         1.112852       0.797077
                                                         0.244984       0.006850
                                                         0.105231       0.055940
                                                         0.041275      -0.036259
                          1       6    5pz               1.476279      -0.656714
                                                         1.112852       0.797077
                                                         0.244984       0.006850
                                                         0.105231       0.055940
                                                         0.041275      -0.036259

                          1       7    4dx2              1.476279      -0.420685
                                                         1.112852       0.508862
                                                         0.244984      -0.083233
                                                         0.105231      -0.010675
                                                         0.041275      -0.001828
                          1       7    4dxy              1.476279      -0.728647
                                                         1.112852       0.881376
                                                         0.244984      -0.144163
                                                         0.105231      -0.018489
                                                         0.041275      -0.003166
                          1       7    4dxz              1.476279      -0.728647
                                                         1.112852       0.881376
                                                         0.244984      -0.144163
                                                         0.105231      -0.018489
                                                         0.041275      -0.003166
                          1       7    4dy2              1.476279      -0.420685
                                                         1.112852       0.508862
                                                         0.244984      -0.083233
                                                         0.105231      -0.010675
                                                         0.041275      -0.001828
                          1       7    4dyz              1.476279      -0.728647
                                                         1.112852       0.881376
                                                         0.244984      -0.144163
                                                         0.105231      -0.018489
                                                         0.041275      -0.003166
                          1       7    4dz2              1.476279      -0.420685
                                                         1.112852       0.508862
                                                         0.244984      -0.083233
                                                         0.105231      -0.010675
                                                         0.041275      -0.001828

       Atomic covalent radius [Angstrom]:                                  1.460

       Atomic van der Waals radius [Angstrom]:                             2.070

     GTH Potential information for                                       GTH-PBE

       Description:                       Goedecker-Teter-Hutter pseudopotential
                                           Goedecker et al., PRB 54, 1703 (1996)
                                          Hartwigsen et al., PRB 58, 3641 (1998)
                                                      Krack, TCA 114, 145 (2005)

       Gaussian exponent of the core charge distribution:               1.366027
       Electronic configuration (s p d ...):                               2   3

       Parameters of the local part of the GTH pseudopotential:

                          rloc        C1          C2          C3          C4
                        0.605000    7.945757

       Parameters of the non-local part of the GTH pseudopotential:

                   l      r(l)      h(i,j,l)

                   0    0.582232    0.643735    2.247616   -1.440601
                                    2.247616   -5.244797    3.719615
                                   -1.440601    3.719615   -2.952353
                   1    0.766394    0.212533    0.379834
                                    0.379834   -0.449426
                   2    0.965655    0.347298

  2. Atomic kind: Te                                    Number of atoms:      24

     Orbital Basis Set                                    TZVP-MOLOPT-PBE-GTH-q6

       Number of orbital shell sets:                                           1
       Number of orbital shells:                                               7
       Number of primitive Cartesian functions:                                4
       Number of Cartesian basis functions:                                   18
       Number of spherical basis functions:                                   17
       Norm type:                                                              2

       Normalised Cartesian orbitals:

                        Set   Shell   Orbital            Exponent    Coefficient

                          1       1    2s                1.502058       0.033423
                                                         1.445079      -0.076164
                                                         0.277535       0.014326
                                                         0.094459       0.118098

                          1       2    3s                1.502058      11.238957
                                                         1.445079     -12.030880
                                                         0.277535       0.712043
                                                         0.094459      -0.196980

                          1       3    4s                1.502058       0.410349
                                                         1.445079       0.400898
                                                         0.277535       0.057243
                                                         0.094459       0.001111

                          1       4    3px               1.502058       1.102918
                                                         1.445079      -0.602675
                                                         0.277535       0.144297
                                                         0.094459       0.036841
                          1       4    3py               1.502058       1.102918
                                                         1.445079      -0.602675
                                                         0.277535       0.144297
                                                         0.094459       0.036841
                          1       4    3pz               1.502058       1.102918
                                                         1.445079      -0.602675
                                                         0.277535       0.144297
                                                         0.094459       0.036841

                          1       5    4px               1.502058      -1.581581
                                                         1.445079      -1.100225
                                                         0.277535       0.176141
                                                         0.094459      -0.019328
                          1       5    4py               1.502058      -1.581581
                                                         1.445079      -1.100225
                                                         0.277535       0.176141
                                                         0.094459      -0.019328
                          1       5    4pz               1.502058      -1.581581
                                                         1.445079      -1.100225
                                                         0.277535       0.176141
                                                         0.094459      -0.019328

                          1       6    5px               1.502058      -1.656374
                                                         1.445079       0.206453
                                                         0.277535      -0.078031
                                                         0.094459       0.073522
                          1       6    5py               1.502058      -1.656374
                                                         1.445079       0.206453
                                                         0.277535      -0.078031
                                                         0.094459       0.073522
                          1       6    5pz               1.502058      -1.656374
                                                         1.445079       0.206453
                                                         0.277535      -0.078031
                                                         0.094459       0.073522

                          1       7    4dx2              1.502058      -0.594376
                                                         1.445079       0.764245
                                                         0.277535      -0.143332
                                                         0.094459      -0.007518
                          1       7    4dxy              1.502058      -1.029490
                                                         1.445079       1.323711
                                                         0.277535      -0.248258
                                                         0.094459      -0.013021
                          1       7    4dxz              1.502058      -1.029490
                                                         1.445079       1.323711
                                                         0.277535      -0.248258
                                                         0.094459      -0.013021
                          1       7    4dy2              1.502058      -0.594376
                                                         1.445079       0.764245
                                                         0.277535      -0.143332
                                                         0.094459      -0.007518
                          1       7    4dyz              1.502058      -1.029490
                                                         1.445079       1.323711
                                                         0.277535      -0.248258
                                                         0.094459      -0.013021
                          1       7    4dz2              1.502058      -0.594376
                                                         1.445079       0.764245
                                                         0.277535      -0.143332
                                                         0.094459      -0.007518

       Atomic covalent radius [Angstrom]:                                  1.360

       Atomic van der Waals radius [Angstrom]:                             2.060

     GTH Potential information for                                       GTH-PBE

       Description:                       Goedecker-Teter-Hutter pseudopotential
                                           Goedecker et al., PRB 54, 1703 (1996)
                                          Hartwigsen et al., PRB 58, 3641 (1998)
                                                      Krack, TCA 114, 145 (2005)

       Gaussian exponent of the core charge distribution:               1.512287
       Electronic configuration (s p d ...):                               2   4

       Parameters of the local part of the GTH pseudopotential:

                          rloc        C1          C2          C3          C4
                        0.575000    8.713649

       Parameters of the non-local part of the GTH pseudopotential:

                   l      r(l)      h(i,j,l)

                   0    0.574922    1.401813    0.978780   -0.486306
                                    0.978780   -2.054576    1.255637
                                   -0.486306    1.255637   -0.996631
                   1    0.589891    0.764789    0.323986
                                    0.323986   -0.383346
                   2    0.813389    0.344858


 MOLECULE KIND INFORMATION


 All atoms are their own molecule, skipping detailed information


 TOTAL NUMBERS AND MAXIMUM NUMBERS

  Total number of            - Atomic kinds:                                   2
                             - Atoms:                                         40
                             - Shell sets:                                    40
                             - Shells:                                       280
                             - Primitive Cartesian functions:                176
                             - Cartesian basis functions:                    720
                             - Spherical basis functions:                    680

  Maximum angular momentum of- Orbital basis functions:                        2
                             - Local part of the GTH pseudopotential:          0
                             - Non-local part of the GTH pseudopotential:      4


 MODULE QUICKSTEP: ATOMIC COORDINATES IN ANGSTROM

   Atom Kind Element         X             Y             Z       Z(eff)     Mass
      1    1 Bi   83      0.000000      0.000000     12.190003   5.0000 208.9804
      2    1 Bi   83      0.000000      0.000000    109.569999   5.0000 208.9804
      3    1 Bi   83      2.197500      1.268727     22.336670   5.0000 208.9804
      4    1 Bi   83      2.197500      1.268727    119.716666   5.0000 208.9804
      5    1 Bi   83      0.000000      2.537454     32.483336   5.0000 208.9804
      6    1 Bi   83      0.000000      2.537454      8.103331   5.0000 208.9804
      7    1 Bi   83      0.000000      0.000000     79.129999   5.0000 208.9804
      8    1 Bi   83      2.197500      1.268727     89.276666   5.0000 208.9804
      9    1 Bi   83      0.000000      2.537454     99.423333   5.0000 208.9804
     10    1 Bi   83      2.197500      1.268727     83.216671   5.0000 208.9804
     11    1 Bi   83      0.000000      2.537454     93.363338   5.0000 208.9804
     12    1 Bi   83      0.000000      0.000000    103.510004   5.0000 208.9804
     13    1 Bi   83      0.000000      0.000000     18.249998   5.0000 208.9804
     14    1 Bi   83      2.197500      1.268727    113.656671   5.0000 208.9804
     15    1 Bi   83      2.197500      1.268727     28.396665   5.0000 208.9804
     16    1 Bi   83      0.000000      2.537454      2.043336   5.0000 208.9804
     17    2 Te   52      0.000000      0.000000    121.760002   6.0000 127.6000
     18    2 Te   52      2.197500      1.268727     10.146667   6.0000 127.6000
     19    2 Te   52      0.000000      2.537454     20.293334   6.0000 127.6000
     20    2 Te   52      0.000000      0.000000     30.440001   6.0000 127.6000
     21    2 Te   52      0.000000      0.000000     91.320002   6.0000 127.6000
     22    2 Te   52      2.197500      1.268727    101.466668   6.0000 127.6000
     23    2 Te   52      0.000000      2.537454    111.613335   6.0000 127.6000
     24    2 Te   52      0.000000      2.537454     81.173335   6.0000 127.6000
     25    2 Te   52      0.000000      0.000000     24.056733   6.0000 127.6000
     26    2 Te   52      0.000000      0.000000     97.703269   6.0000 127.6000
     27    2 Te   52      2.197500      1.268727     34.203400   6.0000 127.6000
     28    2 Te   52      2.197500      1.268727    107.849936   6.0000 127.6000
     29    2 Te   52      0.000000      2.537454    117.996603   6.0000 127.6000
     30    2 Te   52      2.197500      1.268727     77.409936   6.0000 127.6000
     31    2 Te   52      0.000000      2.537454     87.556603   6.0000 127.6000
     32    2 Te   52      0.000000      0.000000     84.936734   6.0000 127.6000
     33    2 Te   52      2.197500      1.268727     95.083401   6.0000 127.6000
     34    2 Te   52      0.000000      2.537454    105.230068   6.0000 127.6000
     35    2 Te   52      0.000000      0.000000    115.376734   6.0000 127.6000
     36    2 Te   52      0.000000      0.000000      6.383268   6.0000 127.6000
     37    2 Te   52      2.197500      1.268727      3.763399   6.0000 127.6000
     38    2 Te   52      2.197500      1.268727     16.529935   6.0000 127.6000
     39    2 Te   52      0.000000      2.537454     13.910066   6.0000 127.6000
     40    2 Te   52      0.000000      2.537454     26.676601   6.0000 127.6000



 SCF PARAMETERS         Density guess:                                    ATOMIC
                        --------------------------------------------------------
                        max_scf:                                             500
                        max_scf_history:                                       0
                        max_diis:                                              4
                        --------------------------------------------------------
                        eps_scf:                                        1.00E-06
                        eps_scf_history:                                0.00E+00
                        eps_diis:                                       1.00E-01
                        eps_eigval:                                     1.00E-05
                        --------------------------------------------------------
                        level_shift [a.u.]:                             0.000000
                        added MOs                                       100    0
                        --------------------------------------------------------
                        Mixing method:                            BROYDEN_MIXING
                                                charge density mixing in g-space
                        --------------------------------------------------------
                        Smear method:                                FERMI_DIRAC
                        Electronic temperature [K]:                        300.0
                        Electronic temperature [a.u.]:                  9.50E-04
                        Accuracy threshold:                             1.00E-10
                        --------------------------------------------------------
                        No outer SCF

 PW_GRID| Information for grid number                                          1
 PW_GRID| Grid distributed over                                    32 processors
 PW_GRID| Real space group dimensions                                    32    1
 PW_GRID| the grid is blocked:                                                NO
 PW_GRID| Cutoff [a.u.]                                                    250.0
 PW_GRID| spherical cutoff:                                                   NO
 PW_GRID|   Bounds   1            -30      29                Points:          60
 PW_GRID|   Bounds   2            -30      29                Points:          60
 PW_GRID|   Bounds   3           -825     824                Points:        1650
 PW_GRID| Volume element (a.u.^3)  0.2305E-02     Volume (a.u.^3)     13688.9292
 PW_GRID| Grid span                                                    FULLSPACE
 PW_GRID|   Distribution                         Average         Max         Min
 PW_GRID|   G-Vectors                           185625.0      185640      185580
 PW_GRID|   G-Rays                                3093.8        3094        3093
 PW_GRID|   Real Space Points                   185625.0      198000       99000

 PW_GRID| Information for grid number                                          2
 PW_GRID| Number of the reference grid                                         1
 PW_GRID| Grid distributed over                                    32 processors
 PW_GRID| Real space group dimensions                                    32    1
 PW_GRID| the grid is blocked:                                                NO
 PW_GRID| Cutoff [a.u.]                                                     83.3
 PW_GRID| spherical cutoff:                                                   NO
 PW_GRID|   Bounds   1            -17      17                Points:          35
 PW_GRID|   Bounds   2            -17      17                Points:          35
 PW_GRID|   Bounds   3           -472     472                Points:         945
 PW_GRID| Volume element (a.u.^3)  0.1183E-01     Volume (a.u.^3)     13688.9292
 PW_GRID| Grid span                                                    FULLSPACE
 PW_GRID|   Distribution                         Average         Max         Min
 PW_GRID|   G-Vectors                            36175.8       37275       35035
 PW_GRID|   G-Rays                                1033.6        1065        1001
 PW_GRID|   Real Space Points                    36175.8       66150       33075

 PW_GRID| Information for grid number                                          3
 PW_GRID| Number of the reference grid                                         1
 PW_GRID| Grid distributed over                                    32 processors
 PW_GRID| Real space group dimensions                                     4    8
 PW_GRID| the grid is blocked:                                                NO
 PW_GRID| Cutoff [a.u.]                                                     27.8
 PW_GRID| spherical cutoff:                                                   NO
 PW_GRID|   Bounds   1            -10       9                Points:          20
 PW_GRID|   Bounds   2            -10       9                Points:          20
 PW_GRID|   Bounds   3           -275     274                Points:         550
 PW_GRID| Volume element (a.u.^3)  0.6222E-01     Volume (a.u.^3)     13688.9292
 PW_GRID| Grid span                                                    FULLSPACE
 PW_GRID|   Distribution                         Average         Max         Min
 PW_GRID|   G-Vectors                             6875.0        7040        6740
 PW_GRID|   G-Rays                                 343.8         352         337
 PW_GRID|   Real Space Points                     6875.0        8250        5500

 PW_GRID| Information for grid number                                          4
 PW_GRID| Number of the reference grid                                         1
 PW_GRID| Grid distributed over                                    32 processors
 PW_GRID| Real space group dimensions                                     4    8
 PW_GRID| the grid is blocked:                                                NO
 PW_GRID| Cutoff [a.u.]                                                      9.3
 PW_GRID| spherical cutoff:                                                   NO
 PW_GRID|   Bounds   1             -5       5                Points:          11
 PW_GRID|   Bounds   2             -5       5                Points:          11
 PW_GRID|   Bounds   3           -157     157                Points:         315
 PW_GRID| Volume element (a.u.^3)  0.3591         Volume (a.u.^3)     13688.9292
 PW_GRID| Grid span                                                    FULLSPACE
 PW_GRID|   Distribution                         Average         Max         Min
 PW_GRID|   G-Vectors                             1191.1        1375        1023
 PW_GRID|   G-Rays                                 108.3         125          93
 PW_GRID|   Real Space Points                     1191.1        1890         630

 POISSON| Solver                                                        PERIODIC
 POISSON| Periodicity                                                        XYZ

 *** WARNING in pw_env_methods.F:744 :: The selected periodicities in the ***
 *** sections &CELL and &POISSON do not match                             ***


 RS_GRID| Information for grid number                                          1
 RS_GRID|   Bounds   1            -30      29                Points:          60
 RS_GRID|   Bounds   2            -30      29                Points:          60
 RS_GRID|   Bounds   3           -825     824                Points:        1650
 RS_GRID| Real space distribution over                                 32 groups
 RS_GRID| Real space distribution along direction                              3
 RS_GRID| Border size                                                         55
 RS_GRID|   Distribution                         Average         Max         Min
 RS_GRID|   Planes                                 161.6         162         161

 RS_GRID| Information for grid number                                          2
 RS_GRID|   Bounds   1            -17      17                Points:          35
 RS_GRID|   Bounds   2            -17      17                Points:          35
 RS_GRID|   Bounds   3           -472     472                Points:         945
 RS_GRID| Real space distribution over                                 32 groups
 RS_GRID| Real space distribution along direction                              3
 RS_GRID| Border size                                                         40
 RS_GRID|   Distribution                         Average         Max         Min
 RS_GRID|   Planes                                 109.5         110         109

 RS_GRID| Information for grid number                                          3
 RS_GRID|   Bounds   1            -10       9                Points:          20
 RS_GRID|   Bounds   2            -10       9                Points:          20
 RS_GRID|   Bounds   3           -275     274                Points:         550
 RS_GRID| Real space fully replicated
 RS_GRID| Group size                                                           1

 RS_GRID| Information for grid number                                          4
 RS_GRID|   Bounds   1             -5       5                Points:          11
 RS_GRID|   Bounds   2             -5       5                Points:          11
 RS_GRID|   Bounds   3           -157     157                Points:         315
 RS_GRID| Real space fully replicated
 RS_GRID| Group size                                                           1

 Number of electrons:                                                        224
 Number of occupied orbitals:                                                112
 Number of molecular orbitals:                                               212

 Number of orbital functions:                                                680
 Number of independent orbital functions:                                    680

 Extrapolation method: initial_guess

 Atomic guess: The first density matrix is obtained in terms of atomic orbitals
               and electronic configurations assigned to each atomic kind

 Guess for atomic kind: Bi

 Electronic structure
    Total number of core electrons                                         78.00
    Total number of valence electrons                                       5.00
    Total number of electrons                                              83.00
    Multiplicity                                                   not specified
    S   [  2.00  2.00  2.00  2.00  2.00] 2.00
    P   [  6.00  6.00  6.00  6.00] 3.00
    D   [ 10.00 10.00 10.00]
    F   [ 14.00]


 *******************************************************************************
                  Iteration          Convergence                     Energy [au]
 *******************************************************************************
                          1        0.260217                      -5.207244662053
                          2        0.997718E-01                  -5.285300203996
                          3        0.730312E-02                  -5.295294227537
                          4        0.878452E-04                  -5.295343659775
                          5        0.117711E-05                  -5.295343667201
                          6        0.600421E-06                  -5.295343667202

 Energy components [Hartree]           Total Energy ::           -5.295343667202
                                        Band Energy ::           -1.424470598186
                                     Kinetic Energy ::            1.670629691509
                                   Potential Energy ::           -6.965973358711
                                      Virial (-V/T) ::            4.169669313383
                                        Core Energy ::           -8.317803450010
                                          XC Energy ::           -1.216860348191
                                     Coulomb Energy ::            4.239320130998
                       Total Pseudopotential Energy ::          -10.056028682433
                       Local Pseudopotential Energy ::          -10.049264192686
                    Nonlocal Pseudopotential Energy ::           -0.006764489746
                                        Confinement ::            0.675955409141

 Orbital energies  State     L     Occupation   Energy[a.u.]          Energy[eV]

                       1     0          2.000      -0.502589          -13.676145

                       1     1          3.000      -0.139764           -3.803175


 Total Electron Density at R=0:                                         0.000075

 Guess for atomic kind: Te

 Electronic structure
    Total number of core electrons                                         46.00
    Total number of valence electrons                                       6.00
    Total number of electrons                                              52.00
    Multiplicity                                                   not specified
    S   [  2.00  2.00  2.00  2.00] 2.00
    P   [  6.00  6.00  6.00] 4.00
    D   [ 10.00 10.00]


 *******************************************************************************
                  Iteration          Convergence                     Energy [au]
 *******************************************************************************
                          1        0.386681                      -7.809236726838
                          2        0.225173                      -7.908883801732
                          3        0.629639E-02                  -7.940849656908
                          4        0.171569E-03                  -7.940867862874
                          5        0.777567E-06                  -7.940867873215

 Energy components [Hartree]           Total Energy ::           -7.940867873215
                                        Band Energy ::           -1.846351519904
                                     Kinetic Energy ::            2.420935854714
                                   Potential Energy ::          -10.361803727929
                                      Virial (-V/T) ::            4.280081897978
                                        Core Energy ::          -12.881229176406
                                          XC Energy ::           -1.658155792370
                                     Coulomb Energy ::            6.598517095561
                       Total Pseudopotential Energy ::          -15.371914138491
                       Local Pseudopotential Energy ::          -15.648828487742
                    Nonlocal Pseudopotential Energy ::            0.276914349251
                                        Confinement ::            0.697491073710

 Orbital energies  State     L     Occupation   Energy[a.u.]          Energy[eV]

                       1     0          2.000      -0.532221          -14.482477

                       1     1          4.000      -0.195477           -5.319207


 Total Electron Density at R=0:                                         0.000169
 Re-scaling the density matrix to get the right number of electrons
                  # Electrons              Trace(P)               Scaling factor
                          224               224.000                        1.000


 SCF WAVEFUNCTION OPTIMIZATION

  Step     Update method      Time    Convergence         Total energy    Change
  ------------------------------------------------------------------------------
     1 NoMix/Diag. 0.10E+00    7.9     0.68081367      -285.8354702653 -2.86E+02
     2 Broy./Diag. 0.10E+00    8.1     0.40647348      -286.3864184355 -5.51E-01
     3 Broy./Diag. 0.10E+00    7.4     0.07825045      -286.2851346132  1.01E-01
     4 Broy./Diag. 0.10E+00    6.4     0.34341034      -286.0842357847  2.01E-01
     5 Broy./Diag. 0.10E+00    6.1     0.10800818      -286.0821091749  2.13E-03
     6 Broy./Diag. 0.10E+00    6.2     0.10143367      -285.8910976247  1.91E-01
     7 Broy./Diag. 0.10E+00    5.9     0.09107478      -286.0956841398 -2.05E-01
     8 Broy./Diag. 0.10E+00    7.0     0.05551165      -286.0472428003  4.84E-02
     9 Broy./Diag. 0.10E+00    6.6     0.02763464      -285.9574070740  8.98E-02
    10 Broy./Diag. 0.10E+00    6.3     0.01617199      -285.8392130788  1.18E-01
    11 Broy./Diag. 0.10E+00    6.0     0.03511207      -285.6656167931  1.74E-01
    12 Broy./Diag. 0.10E+00    5.9     0.00826704      -285.5658595286  9.98E-02
    13 Broy./Diag. 0.10E+00    5.9     0.01200381      -285.5012121608  6.46E-02
    14 Broy./Diag. 0.10E+00    6.2     0.01354286      -285.4693322913  3.19E-02
    15 Broy./Diag. 0.10E+00    6.6     0.00543849      -285.4356919404  3.36E-02
    16 Broy./Diag. 0.10E+00    6.0     0.00479255      -285.4084411447  2.73E-02
    17 Broy./Diag. 0.10E+00    5.9     0.00533295      -285.3923968259  1.60E-02
    18 Broy./Diag. 0.10E+00    5.9     0.00438344      -285.3893505005  3.05E-03
    19 Broy./Diag. 0.10E+00    6.1     0.00454957      -285.3880813225  1.27E-03
    20 Broy./Diag. 0.10E+00    6.0     0.00123949      -285.3884045460 -3.23E-04
    21 Broy./Diag. 0.10E+00    5.9     0.00166491      -285.3949885718 -6.58E-03
    22 Broy./Diag. 0.10E+00    5.8     0.00052519      -285.3956600882 -6.72E-04
    23 Broy./Diag. 0.10E+00    5.8     0.00068946      -285.3981769049 -2.52E-03
    24 Broy./Diag. 0.10E+00    6.4     0.00034539      -285.3985546431 -3.78E-04
    25 Broy./Diag. 0.10E+00    5.9     0.00018976      -285.3996620905 -1.11E-03
    26 Broy./Diag. 0.10E+00    5.8     0.00025312      -285.4020232346 -2.36E-03
    27 Broy./Diag. 0.10E+00    5.8     0.00009668      -285.4030980758 -1.07E-03
    28 Broy./Diag. 0.10E+00    5.8     0.00018120      -285.4031703121 -7.22E-05
    29 Broy./Diag. 0.10E+00    5.9     0.00007959      -285.4029198853  2.50E-04
    30 Broy./Diag. 0.10E+00    6.1     0.00007912      -285.4025971094  3.23E-04
    31 Broy./Diag. 0.10E+00    5.9     0.00005242      -285.4023349919  2.62E-04
    32 Broy./Diag. 0.10E+00    5.8     0.00003332      -285.4019805840  3.54E-04
[...]
       2     Bi       1          4.440279                              0.559721
       3     Bi       1          4.436755                              0.563245
       4     Bi       1          3.957459                              1.042541
       5     Bi       1          4.477399                              0.522601
       6     Bi       1          4.458431                              0.541569
       7     Bi       1          4.477779                              0.522221
       8     Bi       1          4.437275                              0.562725
       9     Bi       1          4.437865                              0.562135
      10     Bi       1          4.431626                              0.568374
      11     Bi       1          4.437464                              0.562536
      12     Bi       1          4.438306                              0.561694
      13     Bi       1          4.439951                              0.560049
      14     Bi       1          4.453585                              0.546415
      15     Bi       1          4.432088                              0.567912
      16     Bi       1          5.791611                             -0.791611
      17     Te       2          6.025315                             -0.025315
      18     Te       2          6.558656                             -0.558656
      19     Te       2          6.560570                             -0.560570
      20     Te       2          6.567495                             -0.567495
      21     Te       2          6.560930                             -0.560930
      22     Te       2          6.560318                             -0.560318
      23     Te       2          6.554724                             -0.554724
      24     Te       2          6.567476                             -0.567476
      25     Te       2          6.283207                             -0.283207
      26     Te       2          6.281897                             -0.281897
      27     Te       2          6.240207                             -0.240207
      28     Te       2          6.281201                             -0.281201
      29     Te       2          6.255278                             -0.255278
      30     Te       2          6.239229                             -0.239229
      31     Te       2          6.282137                             -0.282137
      32     Te       2          6.283653                             -0.283653
      33     Te       2          6.282125                             -0.282125
      34     Te       2          6.281158                             -0.281158
      35     Te       2          6.269741                             -0.269741
      36     Te       2          6.240943                             -0.240943
      37     Te       2          5.994668                              0.005332
      38     Te       2          6.277036                             -0.277036
      39     Te       2          6.286154                             -0.286154
      40     Te       2          6.282450                             -0.282450
 # Total charge                            224.000000                 -0.000000

 !-----------------------------------------------------------------------------!

 !-----------------------------------------------------------------------------!
                           Hirshfeld Charges

  #Atom  Element  Kind  Ref Charge     Population                    Net charge
      1       Bi     1       5.000          4.816                         0.184
      2       Bi     1       5.000          4.818                         0.182
      3       Bi     1       5.000          4.816                         0.184
      4       Bi     1       5.000          4.799                         0.201
      5       Bi     1       5.000          4.800                         0.200
      6       Bi     1       5.000          4.820                         0.180
      7       Bi     1       5.000          4.800                         0.200
      8       Bi     1       5.000          4.817                         0.183
      9       Bi     1       5.000          4.817                         0.183
     10       Bi     1       5.000          4.814                         0.186
     11       Bi     1       5.000          4.817                         0.183
     12       Bi     1       5.000          4.817                         0.183
     13       Bi     1       5.000          4.817                         0.183
     14       Bi     1       5.000          4.821                         0.179
     15       Bi     1       5.000          4.815                         0.185
     16       Bi     1       5.000          4.872                         0.128
     17       Te     2       6.000          6.265                        -0.265
     18       Te     2       6.000          6.177                        -0.177
     19       Te     2       6.000          6.178                        -0.178
     20       Te     2       6.000          6.181                        -0.181
     21       Te     2       6.000          6.178                        -0.178
     22       Te     2       6.000          6.178                        -0.178
     23       Te     2       6.000          6.176                        -0.176
     24       Te     2       6.000          6.181                        -0.181
     25       Te     2       6.000          6.095                        -0.095
     26       Te     2       6.000          6.094                        -0.094
     27       Te     2       6.000          6.110                        -0.110
     28       Te     2       6.000          6.094                        -0.094
     29       Te     2       6.000          6.064                        -0.064
     30       Te     2       6.000          6.109                        -0.109
     31       Te     2       6.000          6.094                        -0.094
     32       Te     2       6.000          6.095                        -0.095
     33       Te     2       6.000          6.094                        -0.094
     34       Te     2       6.000          6.094                        -0.094
     35       Te     2       6.000          6.086                        -0.086
     36       Te     2       6.000          6.067                        -0.067
     37       Te     2       6.000          6.031                        -0.031
     38       Te     2       6.000          6.092                        -0.092
     39       Te     2       6.000          6.096                        -0.096
     40       Te     2       6.000          6.094                        -0.094

  Total Charge                                                            0.000
 !-----------------------------------------------------------------------------!

 KPOINTS| Band Structure Calculation
 KPOINTS| Number of k-point sets                                               1
 KPOINTS| Number of added MOs/bands                                           50
 KPOINTS| Number of k-points in set    1                                     161
 KPOINTS| In units of b-vector [2pi/Bohr]
 KPOINTS| Special point     1          Kd     0.333333     0.333333     0.000000
 KPOINTS| Special point     2       GAMMA     0.000000     0.000000     0.000000
 KPOINTS| Special point     3          Kd     0.333333     0.333333     0.000000
 KPOINTS| Time for k-point line                                           13.478

 ENERGY| Total FORCE_EVAL ( QS ) energy [hartree]           -285.400819016979540

 -------------------------------------------------------------------------------
 -                                                                             -
 -                                DBCSR STATISTICS                             -
 -                                                                             -
 -------------------------------------------------------------------------------
 COUNTER                                    TOTAL       BLAS       SMM       ACC
 flops inhomo. stacks                           0       0.0%      0.0%      0.0%
 flops total                         0.000000E+00       0.0%      0.0%      0.0%
 flops max/rank                      0.000000E+00       0.0%      0.0%      0.0%
 matmuls inhomo. stacks                         0       0.0%      0.0%      0.0%
 matmuls total                                  0       0.0%      0.0%      0.0%
 number of processed stacks                     0       0.0%      0.0%      0.0%
 average stack size                                     0.0       0.0       0.0
 marketing flops                     0.000000E+00
 -------------------------------------------------------------------------------
 -                                                                             -
 -                      DBCSR MESSAGE PASSING PERFORMANCE                      -
 -                                                                             -
 -------------------------------------------------------------------------------
 ROUTINE             CALLS      AVE VOLUME [Bytes]
 MP_Bcast                1                     12.
 MP_Allreduce           19                     21.
 MP_Alltoall       1221448                  30858.
 -------------------------------------------------------------------------------

 -------------------------------------------------------------------------------
 -                                                                             -
 -                                DBM STATISTICS                               -
 -                                                                             -
 -------------------------------------------------------------------------------
    M  x    N  x    K                                          COUNT     PERCENT
 -------------------------------------------------------------------------------

 -------------------------------------------------------------------------------
 -                                                                             -
 -                                GRID STATISTICS                              -
 -                                                                             -
 -------------------------------------------------------------------------------
 LP    KERNEL             BACKEND                              COUNT     PERCENT
 4     collocate general  CPU                                3829332      50.46%
 4     integrate general  CPU                                3755691      49.49%
 0     collocate general  CPU                                   2560       0.03%
 0     integrate general  CPU                                   1280       0.02%
 -------------------------------------------------------------------------------

 MEMORY| Estimated peak process memory [MiB]                                1288

 -------------------------------------------------------------------------------
 ----                             MULTIGRID INFO                            ----
 -------------------------------------------------------------------------------
 count for grid        1:         182984          cutoff [a.u.]          250.00
 count for grid        2:         213796          cutoff [a.u.]           83.33
 count for grid        3:         173821          cutoff [a.u.]           27.78
 count for grid        4:          62461          cutoff [a.u.]            9.26
 total gridlevel count  :         633062

 -------------------------------------------------------------------------------
 -                                                                             -
 -                         MESSAGE PASSING PERFORMANCE                         -
 -                                                                             -
 -------------------------------------------------------------------------------

 ROUTINE             CALLS      AVE VOLUME [Bytes]
 MP_Group                6
 MP_Bcast           532769                   1782.
 MP_Allreduce        27492                   1004.
 MP_Sync                 4
 MP_Alltoall          1299                5544737.
 MP_SendRecv          3224                  40560.
 MP_ISendRecv         3162                  40560.
 MP_Wait            373777
 MP_comm_split           4
 MP_ISend           376478                  42974.
 MP_IRecv           632600                  21816.
 -------------------------------------------------------------------------------


 -------------------------------------------------------------------------------
 -                                                                             -
 -                           R E F E R E N C E S                               -
 -                                                                             -
 -------------------------------------------------------------------------------
 
 CP2K version 2025.1 (Development Version), the CP2K developers group (2025).
 CP2K is freely available from https://www.cp2k.org/ .
 
 T. D. Kuehne, M. Iannuzzi, M. Del Ben, V. V. Rybkin, P. Seewald, F. Stein, T. 
 Laino, R. Z. Khaliullin, O. Schuett, F. Schiffmann, D. Golze, J. Wilhelm, S. 
 Chulkov, M. H. Bani-Hashemian, V. Weber, U. Borstnik, M. Taillefumier, A. S. 
 Jakobovits, A. Lazzaro, H. Pabst, T. Mueller, R. Schade, M. Guidon, S. 
 Andermatt, N. Holmberg, G. K. Schenter, A. Hehn, A. Bussy, F. Belleflamme, G. 
 Tabacchi, A. Gloess, M. Lass, I. Bethune, C. J. Mundy, C. Plessl, M. Watkins, 
 J. VandeVondele, M. Krack, J. Hutter.
 J. Chem. Phys. 152, 194103 (2020).
 CP2K: An electronic structure and molecular dynamics software package - 
 Quickstep: Efficient and accurate electronic structure calculations.
 https://doi.org/10.1063/5.0007045

 A. Togo, I. Tanaka.
 arXiv, 1808.01590 (2018).
 Spglib : a software library for crystal symmetry search.

 O. Schuett, P. Messmer, J. Hutter, J. VandeVondele.
 Electronic Structure Calculations on Graphics Processing Units, 173-190 (2016).
 GPU-Accelerated Sparse Matrix-Matrix Multiplication for Linear Scaling Density 
 Functional Theory.
 https://doi.org/10.1002/9781118670712.ch8

 A. Heinecke, G. Henry, M. Hutchinson, H. Pabst.
 Proceedings of Intl. Supercomputing Conference, 981-991 (2016).
 LIBXSMM: Accelerating Small Matrix Multiplications by Runtime Code Generation.
 https://doi.org/10.1109/SC.2016.83

 J. Hutter, M. Iannuzzi, F. Schiffmann, J. VandeVondele.
 WIREs Comput Mol Sci. 4, 15-25 (2014).
 CP2K: atomistic simulations of condensed matter systems.
 https://doi.org/10.1002/wcms.1159

 U. Borstnik, J. VandeVondele, V. Weber, J. Hutter.
 Parallel Comput. 40, 47-58 (2014).
 Sparse matrix multiplication: The distributed block-compressed sparse row 
 library.
 https://doi.org/10.1016/j.parco.2014.03.012

 A. Marek, V. Blum, R. Johanni, V. Havu, B. Lang, T. Auckenthaler, A. Heinecke, 
 H. Bungartz, H. Lederer.
 J. Phys. Condens. Matter 26, 213201 (2014).
 The ELPA library: scalable parallel eigenvalue solutions for electronic 
 structure theory and computational science.
 https://doi.org/10.1088/0953-8984/26/21/213201

 J. VandeVondele, J. Hutter.
 J. Chem. Phys. 127, 114105 (2007).
 Gaussian basis sets for accurate calculations on molecular systems in gas and 
 condensed phases.
 https://doi.org/10.1063/1.2770708

 M. Krack.
 Theor. Chem. Acc. 114, 145-152 (2005).
 Pseudopotentials for H to Kr optimized for gradient-corrected 
 exchange-correlation functionals.
 https://doi.org/10.1007/s00214-005-0655-y

 M. Frigo, S. G. Johnson.
 Proc. IEEE 93, 216-231 (2005).
 The design and implementation of FFTW3.
 https://doi.org/10.1109/JPROC.2004.840301

 M. Krack, M. Parrinello.
 Phys. Chem. Chem. Phys. 2, 2105-2112 (2000).
 All-electron ab-initio molecular dynamics.
 https://doi.org/10.1039/b001167n

 G. Lippert, J. Hutter, M. Parrinello.
 Theor. Chem. Acc. 103, 124-140 (1999).
 The Gaussian and augmented-plane-wave density functional method for ab initio 
 molecular dynamics simulations.
 https://doi.org/10.1007/s002140050523

 C. Hartwigsen, S. Goedecker, J. Hutter.
 Phys. Rev. B 58, 3641-3662 (1998).
 Relativistic separable dual-space Gaussian pseudopotentials from H to Rn.
 https://doi.org/10.1103/PhysRevB.58.3641

 S. Goedecker, M. Teter, J. Hutter.
 Phys. Rev. B 54, 1703-1710 (1996).
 Separable dual-space Gaussian pseudopotentials.
 https://doi.org/10.1103/PhysRevB.54.1703

 J. P. Perdew, K. Burke, M. Ernzerhof.
 Phys. Rev. Lett. 77, 3865-3868 (1996).
 Generalized gradient approximation made simple.
 https://doi.org/10.1103/PhysRevLett.77.3865


 -------------------------------------------------------------------------------
 -                                                                             -
 -                                T I M I N G                                  -
 -                                                                             -
 -------------------------------------------------------------------------------
 SUBROUTINE                       CALLS  ASD         SELF TIME        TOTAL TIME
                                MAXIMUM       AVERAGE  MAXIMUM  AVERAGE  MAXIMUM
 CP2K                                 1  1.0    0.005    0.017  328.877  328.881
 qs_energies                          1  2.0    0.003    0.056  328.678  328.732
 do_general_diag_kp                  52  5.9    0.164    0.173  316.158  316.195
 scf_env_do_scf                       1  3.0    0.000    0.000  313.815  313.820
 scf_env_do_scf_inner_loop           51  4.0    0.005    0.007  313.815  313.820
 qs_scf_new_mos_kp                   51  5.0    0.000    0.000  302.746  302.784
 cp_fm_start_copy_general         88772  7.3    5.643    8.506  103.747  104.326
 kpoint_density_transform            51  7.0    0.060    0.063  101.125  101.206
 mp_allgather_i                  177544  8.3   94.478   96.756   94.478   96.756
 cp_cfm_geeig                       620  6.2    0.006    0.006   77.313   78.421
 cp_cfm_heevd                       620  7.2    0.001    0.001   61.618   62.641
 cp_cfm_heevd_base                  620  8.2   61.617   62.640   61.617   62.640
 mp_alltoall_i22                 208578  8.8   39.769   59.201   39.769   59.201
 dbcsr_complete_redistribute      89279  8.3    5.673    7.414   41.058   47.173
 dbcsr_desymmetrize_deep         119299  7.5    1.672    2.093   32.664   44.774
 copy_dbcsr_to_fm                 59903  7.0    0.332    0.350   33.762   39.232
 rskp_transform                   29698  7.0   20.119   34.780   20.119   34.780
 copy_fm_to_dbcsr                 29376  8.0    0.102    0.111   20.127   26.422
 cp_fm_finish_copy_general        31856  7.9   17.329   21.649   17.367   21.685
 transform_dmat                   14688  8.0   10.326   17.877   10.326   17.877
 dbcsr_finalize                  211898  8.8    0.602    0.629    7.879   12.485
 dbcsr_merge_all                  89279 10.3    1.283    1.653    5.605   10.241
 cp_cfm_triangular_multiply        1860  7.2    8.862    9.122    8.862    9.122
 mp_isend_dv                      98724  8.6    1.181    8.419    1.181    8.419
 mp_alltoall_d11v                625837  9.4    6.424    7.428    6.424    7.428
 -------------------------------------------------------------------------------

 The number of warnings for this run is : 1
 
 -------------------------------------------------------------------------------
  **** **** ******  **  PROGRAM ENDED AT                 2025-05-07 12:30:10.414
 ***** ** ***  *** **   PROGRAM RAN ON                     n2cn0807.ab2021.local
 **    ****   ******    PROGRAM RAN BY                                  metdyn06
 ***** **    ** ** **   PROGRAM PROCESS ID                               1274974
  **** **  *******  **  PROGRAM STOPPED IN /scratch/hpc-prf-metdyn/metdyn06_Bibe
                                           k/Research/cp2k/bi2te3_final/KGKp/bas
                                           is-set-test/basis-molopt-uzh/tzvp
