SIRIUS 7.6.1, git hash: https://api.github.com/repos/electronic-structure/SIRIUS/git/ref/tags/v7.6.1
 DBCSR| CPU Multiplication driver                                           XSMM (U)
 DBCSR| Multrec recursion limit                                              512 (U)
 DBCSR| Multiplication stack size                                           1000 (D)
 DBCSR| Maximum elements for images                                    UNLIMITED (U)
 DBCSR| Multiplicative factor virtual images                                   1 (U)
 DBCSR| Use multiplication densification                                       T (D)
 DBCSR| Multiplication size stacks                                             3 (U)
 DBCSR| Use memory pool for CPU allocation                                     F (U)
 DBCSR| Number of 3D layers                                               SINGLE (U)
 DBCSR| Use MPI memory allocation                                              F (U)
 DBCSR| Use RMA algorithm                                                      F (U)
 DBCSR| Use Communication thread                                               T (U)
 DBCSR| Communication thread load                                             30 (D)
 DBCSR| MPI: My process id                                                     0
 DBCSR| MPI: Number of processes                                              32
 DBCSR| OMP: Current number of threads                                        16
 DBCSR| OMP: Max number of threads                                            16
 DBCSR| Split modifier for TAS multiplication algorithm                  1.0E+00 (U)


  **** **** ******  **  PROGRAM STARTED AT               2025-05-07 16:35:45.472
 ***** ** ***  *** **   PROGRAM STARTED ON                 n2cn0832.ab2021.local
 **    ****   ******    PROGRAM STARTED BY                              metdyn06
 ***** **    ** ** **   PROGRAM PROCESS ID                               3577046
  **** **  *******  **  PROGRAM STARTED IN /scratch/hpc-prf-metdyn/metdyn06_Bibe
                                           k/Research/cp2k/bi2te3_final/KGKp/den
                                           se-grid

 CP2K| version string:                 CP2K version 2025.1 (Development Version)
 CP2K| source code revision number:                                  git:8da3cac
 CP2K| cp2kflags: omp libint fftw3 libxc libgrpp elpa parallel scalapack mpi_f08
 CP2K|             cosma xsmm plumed2 spglib sirius libvori libbqb libvdwxc hdf5
 CP2K| is freely available from                            https://www.cp2k.org/
 CP2K| Program compiled at                         Thu Apr  3 15:24:46 CEST 2025
 CP2K| Program compiled on                                              n2login6
 CP2K| Program compiled for                                                local
 CP2K| Data directory path    /opt/software/pc2/EB-SW/software/CP2K/2024.1-foss-
 CP2K| Input file name                                                  cp2k.inp

 GLOBAL| Force Environment number                                              1
 GLOBAL| Basis set file name            /pc2/groups/hpc-prf-metdyn/metdyn06_Bibe
 GLOBAL| Potential file name            /pc2/groups/hpc-prf-metdyn/metdyn06_Bibe
 GLOBAL| MM Potential file name                                     MM_POTENTIAL
 GLOBAL| Coordinate file name                                      __STD_INPUT__
 GLOBAL| Method name                                                        CP2K
 GLOBAL| Project name                                                     Bi2Te3
 GLOBAL| Run type                                                         ENERGY
 GLOBAL| FFT library                                                       FFTW3
 GLOBAL| Diagonalization library                                            ELPA
 GLOBAL| DGEMM library                                                      BLAS
 GLOBAL| Minimum number of eigenvectors for ELPA usage                        16
 GLOBAL| Orthonormality check for eigenvectors                          DISABLED
 GLOBAL| Matrix multiplication library                                     COSMA
 GLOBAL| All-to-all communication in single precision                          F
 GLOBAL| FFTs using library dependent lengths                                  T
 GLOBAL| Grid backend                                                       AUTO
 GLOBAL| Global print level                                               MEDIUM
 GLOBAL| MPI I/O enabled                                                       T
 GLOBAL| Total number of message passing processes                            32
 GLOBAL| Number of threads for this process                                   16
 GLOBAL| This output is from process                                           0
 GLOBAL| OpenMP stack size per thread (OMP_STACKSIZE)                    default
 GLOBAL| CPU model name                          AMD EPYC 7763 64-Core Processor
 GLOBAL| CPUID                                                              1002

 MEMORY| system memory details [Kb]
 MEMORY|                        rank 0           min           max       average
 MEMORY| MemTotal            263899260     263899260     263899264     263899261
 MEMORY| MemFree             248851352     245750564     248851352     247412546
 MEMORY| Buffers                 99188         99188        270156        193437
 MEMORY| Cached                6070508       6070508       8675304       7146002
 MEMORY| Slab                  2243056       2243056       2658044       2516830
 MEMORY| SReclaimable           388456        388456        570560        480770
 MEMORY| MemLikelyFree       255409504     255111940     255409504     255232755


 *** Fundamental physical constants (SI units) ***

 *** Literature: B. J. Mohr and B. N. Taylor,
 ***             CODATA recommended values of the fundamental physical
 ***             constants: 2006, Web Version 5.1
 ***             http://physics.nist.gov/constants

 Speed of light in vacuum [m/s]                             2.99792458000000E+08
 Magnetic constant or permeability of vacuum [N/A**2]       1.25663706143592E-06
 Electric constant or permittivity of vacuum [F/m]          8.85418781762039E-12
 Planck constant (h) [J*s]                                  6.62606896000000E-34
 Planck constant (h-bar) [J*s]                              1.05457162825177E-34
 Elementary charge [C]                                      1.60217648700000E-19
 Electron mass [kg]                                         9.10938215000000E-31
 Electron g factor [ ]                                     -2.00231930436220E+00
 Proton mass [kg]                                           1.67262163700000E-27
 Fine-structure constant                                    7.29735253760000E-03
 Rydberg constant [1/m]                                     1.09737315685270E+07
 Avogadro constant [1/mol]                                  6.02214179000000E+23
 Boltzmann constant [J/K]                                   1.38065040000000E-23
 Atomic mass unit [kg]                                      1.66053878200000E-27
 Bohr radius [m]                                            5.29177208590000E-11

 *** Conversion factors ***

 [u] -> [a.u.]                                              1.82288848426455E+03
 [Angstrom] -> [Bohr] = [a.u.]                              1.88972613288564E+00
 [a.u.] = [Bohr] -> [Angstrom]                              5.29177208590000E-01
 [a.u.] -> [s]                                              2.41888432650478E-17
 [a.u.] -> [fs]                                             2.41888432650478E-02
 [a.u.] -> [J]                                              4.35974393937059E-18
 [a.u.] -> [N]                                              8.23872205491840E-08
 [a.u.] -> [K]                                              3.15774647902944E+05
 [a.u.] -> [kJ/mol]                                         2.62549961709828E+03
 [a.u.] -> [kcal/mol]                                       6.27509468713739E+02
 [a.u.] -> [Pa]                                             2.94210107994716E+13
 [a.u.] -> [bar]                                            2.94210107994716E+08
 [a.u.] -> [atm]                                            2.90362800883016E+08
 [a.u.] -> [eV]                                             2.72113838565563E+01
 [a.u.] -> [Hz]                                             6.57968392072181E+15
 [a.u.] -> [1/cm] (wave numbers)                            2.19474631370540E+05
 [a.u./Bohr**2] -> [1/cm]                                   5.14048714338585E+03
 

 CELL_TOP| Volume [angstrom^3]:                                      2028.489998
 CELL_TOP| Vector a [angstrom     4.386     0.000     0.000   |a| =     4.386002
 CELL_TOP| Vector b [angstrom    -2.193     3.798     0.000   |b| =     4.386002
 CELL_TOP| Vector c [angstrom    -0.000     0.000   121.760   |c| =   121.760000
 CELL_TOP| Angle (b,c), alpha [degree]:                                90.000000
 CELL_TOP| Angle (a,c), beta  [degree]:                                90.000000
 CELL_TOP| Angle (a,b), gamma [degree]:                               120.000000
 CELL_TOP| Numerically orthorhombic:                                          NO
 CELL_TOP| Periodicity                                                        XY

 GENERATE|  Preliminary Number of Bonds generated:                             0
 GENERATE|  Achieved consistency in connectivity generation.

 CELL| Volume [angstrom^3]:                                          2028.489998
 CELL| Vector a [angstrom]:       4.386     0.000     0.000   |a| =     4.386002
 CELL| Vector b [angstrom]:      -2.193     3.798     0.000   |b| =     4.386002
 CELL| Vector c [angstrom]:      -0.000     0.000   121.760   |c| =   121.760000
 CELL| Angle (b,c), alpha [degree]:                                    90.000000
 CELL| Angle (a,c), beta  [degree]:                                    90.000000
 CELL| Angle (a,b), gamma [degree]:                                   120.000000
 CELL| Numerically orthorhombic:                                              NO
 CELL| Periodicity                                                            XY

 CELL_REF| Volume [angstrom^3]:                                      2028.489998
 CELL_REF| Vector a [angstrom     4.386     0.000     0.000   |a| =     4.386002
 CELL_REF| Vector b [angstrom    -2.193     3.798     0.000   |b| =     4.386002
 CELL_REF| Vector c [angstrom    -0.000     0.000   121.760   |c| =   121.760000
 CELL_REF| Angle (b,c), alpha [degree]:                                90.000000
 CELL_REF| Angle (a,c), beta  [degree]:                                90.000000
 CELL_REF| Angle (a,b), gamma [degree]:                               120.000000
 CELL_REF| Numerically orthorhombic:                                          NO
 CELL_REF| Periodicity                                                        XY

 *******************************************************************************
                                    Kpoints
 *******************************************************************************
 BRILLOUIN| K-point scheme                                        Monkhorst-Pack
 BRILLOUIN| K-Point grid                                            12   12    1
 BRILLOUIN| Accuracy in Symmetry determination                      0.100000E-05
 BRILLOUIN| K-Point point group symmetrization                               OFF
 BRILLOUIN| Wavefunction type                                            COMPLEX
 BRILLOUIN| List of Kpoints [2 Pi/Bohr]                                       72
 BRILLOUIN| Number           Weight            X              Y              Z
 BRILLOUIN|     1           0.01389       -0.45833       -0.45833        0.00000
 BRILLOUIN|     2           0.01389       -0.45833       -0.37500        0.00000
 BRILLOUIN|     3           0.01389       -0.45833       -0.29167        0.00000
 BRILLOUIN|     4           0.01389       -0.45833       -0.20833        0.00000
 BRILLOUIN|     5           0.01389       -0.45833       -0.12500        0.00000
 BRILLOUIN|     6           0.01389       -0.45833       -0.04167        0.00000
 BRILLOUIN|     7           0.01389       -0.45833        0.04167        0.00000
 BRILLOUIN|     8           0.01389       -0.45833        0.12500        0.00000
 BRILLOUIN|     9           0.01389       -0.45833        0.20833        0.00000
 BRILLOUIN|    10           0.01389       -0.45833        0.29167        0.00000
 BRILLOUIN|    11           0.01389       -0.45833        0.37500        0.00000
 BRILLOUIN|    12           0.01389       -0.45833        0.45833        0.00000
 BRILLOUIN|    13           0.01389       -0.37500       -0.45833        0.00000
 BRILLOUIN|    14           0.01389       -0.37500       -0.37500        0.00000
 BRILLOUIN|    15           0.01389       -0.37500       -0.29167        0.00000
 BRILLOUIN|    16           0.01389       -0.37500       -0.20833        0.00000
 BRILLOUIN|    17           0.01389       -0.37500       -0.12500        0.00000
 BRILLOUIN|    18           0.01389       -0.37500       -0.04167        0.00000
 BRILLOUIN|    19           0.01389       -0.37500        0.04167        0.00000
 BRILLOUIN|    20           0.01389       -0.37500        0.12500        0.00000
 BRILLOUIN|    21           0.01389       -0.37500        0.20833        0.00000
 BRILLOUIN|    22           0.01389       -0.37500        0.29167        0.00000
 BRILLOUIN|    23           0.01389       -0.37500        0.37500        0.00000
 BRILLOUIN|    24           0.01389       -0.37500        0.45833        0.00000
 BRILLOUIN|    25           0.01389       -0.29167       -0.45833        0.00000
 BRILLOUIN|    26           0.01389       -0.29167       -0.37500        0.00000
 BRILLOUIN|    27           0.01389       -0.29167       -0.29167        0.00000
 BRILLOUIN|    28           0.01389       -0.29167       -0.20833        0.00000
 BRILLOUIN|    29           0.01389       -0.29167       -0.12500        0.00000
 BRILLOUIN|    30           0.01389       -0.29167       -0.04167        0.00000
 BRILLOUIN|    31           0.01389       -0.29167        0.04167        0.00000
 BRILLOUIN|    32           0.01389       -0.29167        0.12500        0.00000
 BRILLOUIN|    33           0.01389       -0.29167        0.20833        0.00000
 BRILLOUIN|    34           0.01389       -0.29167        0.29167        0.00000
 BRILLOUIN|    35           0.01389       -0.29167        0.37500        0.00000
 BRILLOUIN|    36           0.01389       -0.29167        0.45833        0.00000
 BRILLOUIN|    37           0.01389       -0.20833       -0.45833        0.00000
 BRILLOUIN|    38           0.01389       -0.20833       -0.37500        0.00000
 BRILLOUIN|    39           0.01389       -0.20833       -0.29167        0.00000
 BRILLOUIN|    40           0.01389       -0.20833       -0.20833        0.00000
 BRILLOUIN|    41           0.01389       -0.20833       -0.12500        0.00000
 BRILLOUIN|    42           0.01389       -0.20833       -0.04167        0.00000
 BRILLOUIN|    43           0.01389       -0.20833        0.04167        0.00000
 BRILLOUIN|    44           0.01389       -0.20833        0.12500        0.00000
 BRILLOUIN|    45           0.01389       -0.20833        0.20833        0.00000
 BRILLOUIN|    46           0.01389       -0.20833        0.29167        0.00000
 BRILLOUIN|    47           0.01389       -0.20833        0.37500        0.00000
 BRILLOUIN|    48           0.01389       -0.20833        0.45833        0.00000
 BRILLOUIN|    49           0.01389       -0.12500       -0.45833        0.00000
 BRILLOUIN|    50           0.01389       -0.12500       -0.37500        0.00000
 BRILLOUIN|    51           0.01389       -0.12500       -0.29167        0.00000
 BRILLOUIN|    52           0.01389       -0.12500       -0.20833        0.00000
 BRILLOUIN|    53           0.01389       -0.12500       -0.12500        0.00000
 BRILLOUIN|    54           0.01389       -0.12500       -0.04167        0.00000
 BRILLOUIN|    55           0.01389       -0.12500        0.04167        0.00000
 BRILLOUIN|    56           0.01389       -0.12500        0.12500        0.00000
 BRILLOUIN|    57           0.01389       -0.12500        0.20833        0.00000
 BRILLOUIN|    58           0.01389       -0.12500        0.29167        0.00000
 BRILLOUIN|    59           0.01389       -0.12500        0.37500        0.00000
 BRILLOUIN|    60           0.01389       -0.12500        0.45833        0.00000
 BRILLOUIN|    61           0.01389       -0.04167       -0.45833        0.00000
 BRILLOUIN|    62           0.01389       -0.04167       -0.37500        0.00000
 BRILLOUIN|    63           0.01389       -0.04167       -0.29167        0.00000
 BRILLOUIN|    64           0.01389       -0.04167       -0.20833        0.00000
 BRILLOUIN|    65           0.01389       -0.04167       -0.12500        0.00000
 BRILLOUIN|    66           0.01389       -0.04167       -0.04167        0.00000
 BRILLOUIN|    67           0.01389       -0.04167        0.04167        0.00000
 BRILLOUIN|    68           0.01389       -0.04167        0.12500        0.00000
 BRILLOUIN|    69           0.01389       -0.04167        0.20833        0.00000
 BRILLOUIN|    70           0.01389       -0.04167        0.29167        0.00000
 BRILLOUIN|    71           0.01389       -0.04167        0.37500        0.00000
 BRILLOUIN|    72           0.01389       -0.04167        0.45833        0.00000
 *******************************************************************************

 *******************************************************************************
 *******************************************************************************
 **                                                                           **
 **     #####                         ##              ##                      **
 **    ##   ##            ##          ##              ##                      **
 **   ##     ##                       ##            ######                    **
 **   ##     ##  ##   ##  ##   #####  ##  ##   ####   ##    #####    #####    **
 **   ##     ##  ##   ##  ##  ##      ## ##   ##      ##   ##   ##  ##   ##   **
 **   ##  ## ##  ##   ##  ##  ##      ####     ###    ##   ######   ######    **
 **    ##  ###   ##   ##  ##  ##      ## ##      ##   ##   ##       ##        **
 **     #######   #####   ##   #####  ##  ##  ####    ##    #####   ##        **
 **           ##                                                    ##        **
 **                                                                           **
 **                                                ... make the atoms dance   **
 **                                                                           **
 **            Copyright (C) by CP2K developers group (2000-2025)             **
 **                      J. Chem. Phys. 152, 194103 (2020)                    **
 **                                                                           **
 *******************************************************************************

 DFT| Spin restricted Kohn-Sham (RKS) calculation                            RKS
 DFT| Multiplicity                                                             1
 DFT| Number of spin states                                                    1
 DFT| Charge                                                                   0
 DFT| Self-interaction correction (SIC)                                       NO
 DFT| Cutoffs: density                                              1.000000E-10
 DFT|          gradient                                             1.000000E-10
 DFT|          tau                                                  1.000000E-10
 DFT|          cutoff_smoothing_range                               0.000000E+00
 DFT| XC density smoothing                                                  NONE
 DFT| XC derivatives                                                          PW

 FUNCTIONAL| PBE:
 FUNCTIONAL| J.P.Perdew, K.Burke, M.Ernzerhof, Phys. Rev. Letter, vol. 77, n 18,
 FUNCTIONAL|  pp. 3865-3868, (1996) {spin unpolarized}                          


 QS| Method:                                                                GAPW
 QS| Density plane wave grid type                        NON-SPHERICAL FULLSPACE
 QS| Number of grid levels:                                                    4
 QS| Density cutoff [a.u.]:                                                250.0
 QS| Multi grid cutoff [a.u.]: 1) grid level                               250.0
 QS|                           2) grid level                                83.3
 QS|                           3) grid level                                27.8
 QS|                           4) grid level                                 9.3
 QS| Grid level progression factor:                                          3.0
 QS| Relative density cutoff [a.u.]:                                        50.0
 QS| Interaction thresholds: eps_pgf_orb:                                1.0E-12
 QS|                         eps_filter_matrix:                          0.0E+00
 QS|                         eps_core_charge:                            1.0E-14
 QS|                         eps_rho_gspace:                             1.0E-12
 QS|                         eps_rho_rspace:                             1.0E-12
 QS|                         eps_gvg_rspace:                             1.0E-06
 QS|                         eps_ppl:                                    1.0E-02
 QS|                         eps_ppnl:                                   1.0E-08
 QS| GAPW|      One center basis from orbital basis primitives
 QS| GAPW|                   eps_fit:                                    1.0E-04
 QS| GAPW|                   eps_iso:                                    1.0E-12
 QS| GAPW|                   eps_svd:                                    1.0E-08
 QS| GAPW|                   eps_cpc:                                    1.0E-12
 QS| GAPW|   atom-r-grid: quadrature:                                     GC_LOG
 QS| GAPW|      atom-s-grid:  max l :                                          4
 QS| GAPW|      max_l_rho0 :                                                   2
 QS| GAPW|      At least one kind is NOT PAW, i.e. it has only soft AO 
 QS| GAPW|      The NOT PAW atoms are treated fully GPW


 ATOMIC KIND INFORMATION

  1. Atomic kind: Bi                                    Number of atoms:      16

     Orbital Basis Set                                        DZVP-MOLOPT-SR-GTH

       Number of orbital shell sets:                                           1
       Number of orbital shells:                                               5
       Number of primitive Cartesian functions:                                5
       Number of Cartesian basis functions:                                   14
       Number of spherical basis functions:                                   13
       Norm type:                                                              2

       Normalised Cartesian orbitals:

                        Set   Shell   Orbital            Exponent    Coefficient

                          1       1    2s                1.666928      -0.653332
                                                         1.317942       0.913949
                                                         0.222221      -0.237783
                                                         0.074524      -0.045176
                                                         0.066725       0.021473

                          1       2    3s                1.666928      -0.132940
                                                         1.317942       0.287470
                                                         0.222221      -0.063074
                                                         0.074524      -0.182797
                                                         0.066725       0.272804

                          1       3    3px               1.666928      -0.339972
                                                         1.317942       0.505803
                                                         0.222221      -0.150343
                                                         0.074524      -0.031874
                                                         0.066725       0.007024
                          1       3    3py               1.666928      -0.339972
                                                         1.317942       0.505803
                                                         0.222221      -0.150343
                                                         0.074524      -0.031874
                                                         0.066725       0.007024
                          1       3    3pz               1.666928      -0.339972
                                                         1.317942       0.505803
                                                         0.222221      -0.150343
                                                         0.074524      -0.031874
                                                         0.066725       0.007024

                          1       4    4px               1.666928      -0.361009
                                                         1.317942       0.524264
                                                         0.222221      -0.152732
                                                         0.074524      -0.051985
                                                         0.066725       0.106836
                          1       4    4py               1.666928      -0.361009
                                                         1.317942       0.524264
                                                         0.222221      -0.152732
                                                         0.074524      -0.051985
                                                         0.066725       0.106836
                          1       4    4pz               1.666928      -0.361009
                                                         1.317942       0.524264
                                                         0.222221      -0.152732
                                                         0.074524      -0.051985
                                                         0.066725       0.106836

                          1       5    4dx2              1.666928      -0.354694
                                                         1.317942       0.421921
                                                         0.222221      -0.055778
                                                         0.074524      -0.014852
                                                         0.066725       0.002878
                          1       5    4dxy              1.666928      -0.614349
                                                         1.317942       0.730789
                                                         0.222221      -0.096610
                                                         0.074524      -0.025725
                                                         0.066725       0.004986
                          1       5    4dxz              1.666928      -0.614349
                                                         1.317942       0.730789
                                                         0.222221      -0.096610
                                                         0.074524      -0.025725
                                                         0.066725       0.004986
                          1       5    4dy2              1.666928      -0.354694
                                                         1.317942       0.421921
                                                         0.222221      -0.055778
                                                         0.074524      -0.014852
                                                         0.066725       0.002878
                          1       5    4dyz              1.666928      -0.614349
                                                         1.317942       0.730789
                                                         0.222221      -0.096610
                                                         0.074524      -0.025725
                                                         0.066725       0.004986
                          1       5    4dz2              1.666928      -0.354694
                                                         1.317942       0.421921
                                                         0.222221      -0.055778
                                                         0.074524      -0.014852
                                                         0.066725       0.002878

       Atomic covalent radius [Angstrom]:                                  1.460

       Atomic van der Waals radius [Angstrom]:                             2.070

     GTH Potential information for                                       GTH-PBE

       Description:                       Goedecker-Teter-Hutter pseudopotential
                                           Goedecker et al., PRB 54, 1703 (1996)
                                          Hartwigsen et al., PRB 58, 3641 (1998)
                                                      Krack, TCA 114, 145 (2005)

       Gaussian exponent of the core charge distribution:               1.366027
       Electronic configuration (s p d ...):                               2   3

       Parameters of the local part of the GTH pseudopotential:

                          rloc        C1          C2          C3          C4
                        0.605000    7.945757

       Parameters of the non-local part of the GTH pseudopotential:

                   l      r(l)      h(i,j,l)

                   0    0.582232    0.643735    2.247616   -1.440601
                                    2.247616   -5.244797    3.719615
                                   -1.440601    3.719615   -2.952353
                   1    0.766394    0.212533    0.379834
                                    0.379834   -0.449426
                   2    0.965655    0.347298

  2. Atomic kind: Te                                    Number of atoms:      24

     Orbital Basis Set                                        DZVP-MOLOPT-SR-GTH

       Number of orbital shell sets:                                           1
       Number of orbital shells:                                               5
       Number of primitive Cartesian functions:                                5
       Number of Cartesian basis functions:                                   14
       Number of spherical basis functions:                                   13
       Norm type:                                                              2

       Normalised Cartesian orbitals:

                        Set   Shell   Orbital            Exponent    Coefficient

                          1       1    2s                0.871171      -0.493768
                                                         0.666553       0.193580
                                                         0.260565       0.216643
                                                         0.171877       0.036406
                                                         0.082234       0.023610

                          1       2    3s                0.871171       0.400442
                                                         0.666553      -0.269433
                                                         0.260565       0.143727
                                                         0.171877      -0.289011
                                                         0.082234       0.204914

                          1       3    3px               0.871171      -0.639229
                                                         0.666553       0.465124
                                                         0.260565       0.108480
                                                         0.171877       0.047423
                                                         0.082234       0.017690
                          1       3    3py               0.871171      -0.639229
                                                         0.666553       0.465124
                                                         0.260565       0.108480
                                                         0.171877       0.047423
                                                         0.082234       0.017690
                          1       3    3pz               0.871171      -0.639229
                                                         0.666553       0.465124
                                                         0.260565       0.108480
                                                         0.171877       0.047423
                                                         0.082234       0.017690

                          1       4    4px               0.871171       0.502715
                                                         0.666553      -0.461790
                                                         0.260565       0.059103
                                                         0.171877      -0.082650
                                                         0.082234       0.083630
                          1       4    4py               0.871171       0.502715
                                                         0.666553      -0.461790
                                                         0.260565       0.059103
                                                         0.171877      -0.082650
                                                         0.082234       0.083630
                          1       4    4pz               0.871171       0.502715
                                                         0.666553      -0.461790
                                                         0.260565       0.059103
                                                         0.171877      -0.082650
                                                         0.082234       0.083630

                          1       5    4dx2              0.871171       0.386381
                                                         0.666553      -0.304021
                                                         0.260565      -0.048587
                                                         0.171877      -0.048009
                                                         0.082234       0.000460
                          1       5    4dxy              0.871171       0.669232
                                                         0.666553      -0.526579
                                                         0.260565      -0.084155
                                                         0.171877      -0.083155
                                                         0.082234       0.000796
                          1       5    4dxz              0.871171       0.669232
                                                         0.666553      -0.526579
                                                         0.260565      -0.084155
                                                         0.171877      -0.083155
                                                         0.082234       0.000796
                          1       5    4dy2              0.871171       0.386381
                                                         0.666553      -0.304021
                                                         0.260565      -0.048587
                                                         0.171877      -0.048009
                                                         0.082234       0.000460
                          1       5    4dyz              0.871171       0.669232
                                                         0.666553      -0.526579
                                                         0.260565      -0.084155
                                                         0.171877      -0.083155
                                                         0.082234       0.000796
                          1       5    4dz2              0.871171       0.386381
                                                         0.666553      -0.304021
                                                         0.260565      -0.048587
                                                         0.171877      -0.048009
                                                         0.082234       0.000460

       Atomic covalent radius [Angstrom]:                                  1.360

       Atomic van der Waals radius [Angstrom]:                             2.060

     GTH Potential information for                                       GTH-PBE

       Description:                       Goedecker-Teter-Hutter pseudopotential
                                           Goedecker et al., PRB 54, 1703 (1996)
                                          Hartwigsen et al., PRB 58, 3641 (1998)
                                                      Krack, TCA 114, 145 (2005)

       Gaussian exponent of the core charge distribution:               1.512287
       Electronic configuration (s p d ...):                               2   4

       Parameters of the local part of the GTH pseudopotential:

                          rloc        C1          C2          C3          C4
                        0.575000    8.713649

       Parameters of the non-local part of the GTH pseudopotential:

                   l      r(l)      h(i,j,l)

                   0    0.574922    1.401813    0.978780   -0.486306
                                    0.978780   -2.054576    1.255637
                                   -0.486306    1.255637   -0.996631
                   1    0.589891    0.764789    0.323986
                                    0.323986   -0.383346
                   2    0.813389    0.344858


 MOLECULE KIND INFORMATION


 All atoms are their own molecule, skipping detailed information


 TOTAL NUMBERS AND MAXIMUM NUMBERS

  Total number of            - Atomic kinds:                                   2
                             - Atoms:                                         40
                             - Shell sets:                                    40
                             - Shells:                                       200
                             - Primitive Cartesian functions:                200
                             - Cartesian basis functions:                    560
                             - Spherical basis functions:                    520

  Maximum angular momentum of- Orbital basis functions:                        2
                             - Local part of the GTH pseudopotential:          0
                             - Non-local part of the GTH pseudopotential:      4


 MODULE QUICKSTEP: ATOMIC COORDINATES IN ANGSTROM

   Atom Kind Element         X             Y             Z       Z(eff)     Mass
      1    1 Bi   83      0.000000      0.000000     12.190003   5.0000 208.9804
      2    1 Bi   83      0.000000      0.000000    109.569999   5.0000 208.9804
      3    1 Bi   83      2.197500      1.268727     22.336670   5.0000 208.9804
      4    1 Bi   83      2.197500      1.268727    119.716666   5.0000 208.9804
      5    1 Bi   83      0.000000      2.537454     32.483336   5.0000 208.9804
      6    1 Bi   83      0.000000      2.537454      8.103331   5.0000 208.9804
      7    1 Bi   83      0.000000      0.000000     79.129999   5.0000 208.9804
      8    1 Bi   83      2.197500      1.268727     89.276666   5.0000 208.9804
      9    1 Bi   83      0.000000      2.537454     99.423333   5.0000 208.9804
     10    1 Bi   83      2.197500      1.268727     83.216671   5.0000 208.9804
     11    1 Bi   83      0.000000      2.537454     93.363338   5.0000 208.9804
     12    1 Bi   83      0.000000      0.000000    103.510004   5.0000 208.9804
     13    1 Bi   83      0.000000      0.000000     18.249998   5.0000 208.9804
     14    1 Bi   83      2.197500      1.268727    113.656671   5.0000 208.9804
     15    1 Bi   83      2.197500      1.268727     28.396665   5.0000 208.9804
     16    1 Bi   83      0.000000      2.537454      2.043336   5.0000 208.9804
     17    2 Te   52      0.000000      0.000000    121.760002   6.0000 127.6000
     18    2 Te   52      2.197500      1.268727     10.146667   6.0000 127.6000
     19    2 Te   52      0.000000      2.537454     20.293334   6.0000 127.6000
     20    2 Te   52      0.000000      0.000000     30.440001   6.0000 127.6000
     21    2 Te   52      0.000000      0.000000     91.320002   6.0000 127.6000
     22    2 Te   52      2.197500      1.268727    101.466668   6.0000 127.6000
     23    2 Te   52      0.000000      2.537454    111.613335   6.0000 127.6000
     24    2 Te   52      0.000000      2.537454     81.173335   6.0000 127.6000
     25    2 Te   52      0.000000      0.000000     24.056733   6.0000 127.6000
     26    2 Te   52      0.000000      0.000000     97.703269   6.0000 127.6000
     27    2 Te   52      2.197500      1.268727     34.203400   6.0000 127.6000
     28    2 Te   52      2.197500      1.268727    107.849936   6.0000 127.6000
     29    2 Te   52      0.000000      2.537454    117.996603   6.0000 127.6000
     30    2 Te   52      2.197500      1.268727     77.409936   6.0000 127.6000
     31    2 Te   52      0.000000      2.537454     87.556603   6.0000 127.6000
     32    2 Te   52      0.000000      0.000000     84.936734   6.0000 127.6000
     33    2 Te   52      2.197500      1.268727     95.083401   6.0000 127.6000
     34    2 Te   52      0.000000      2.537454    105.230068   6.0000 127.6000
     35    2 Te   52      0.000000      0.000000    115.376734   6.0000 127.6000
     36    2 Te   52      0.000000      0.000000      6.383268   6.0000 127.6000
     37    2 Te   52      2.197500      1.268727      3.763399   6.0000 127.6000
     38    2 Te   52      2.197500      1.268727     16.529935   6.0000 127.6000
     39    2 Te   52      0.000000      2.537454     13.910066   6.0000 127.6000
     40    2 Te   52      0.000000      2.537454     26.676601   6.0000 127.6000



 SCF PARAMETERS         Density guess:                                    ATOMIC
                        --------------------------------------------------------
                        max_scf:                                             500
                        max_scf_history:                                       0
                        max_diis:                                              4
                        --------------------------------------------------------
                        eps_scf:                                        1.00E-06
                        eps_scf_history:                                0.00E+00
                        eps_diis:                                       1.00E-01
                        eps_eigval:                                     1.00E-05
                        --------------------------------------------------------
                        level_shift [a.u.]:                             0.000000
                        added MOs                                       100    0
                        --------------------------------------------------------
                        Mixing method:                            BROYDEN_MIXING
                                                charge density mixing in g-space
                        --------------------------------------------------------
                        Smear method:                                FERMI_DIRAC
                        Electronic temperature [K]:                        300.0
                        Electronic temperature [a.u.]:                  9.50E-04
                        Accuracy threshold:                             1.00E-10
                        --------------------------------------------------------
                        No outer SCF

 PW_GRID| Information for grid number                                          1
 PW_GRID| Grid distributed over                                    32 processors
 PW_GRID| Real space group dimensions                                    32    1
 PW_GRID| the grid is blocked:                                                NO
 PW_GRID| Cutoff [a.u.]                                                    250.0
 PW_GRID| spherical cutoff:                                                   NO
 PW_GRID|   Bounds   1            -30      29                Points:          60
 PW_GRID|   Bounds   2            -30      29                Points:          60
 PW_GRID|   Bounds   3           -825     824                Points:        1650
 PW_GRID| Volume element (a.u.^3)  0.2305E-02     Volume (a.u.^3)     13688.9292
 PW_GRID| Grid span                                                    FULLSPACE
 PW_GRID|   Distribution                         Average         Max         Min
 PW_GRID|   G-Vectors                           185625.0      185640      185580
 PW_GRID|   G-Rays                                3093.8        3094        3093
 PW_GRID|   Real Space Points                   185625.0      198000       99000

 PW_GRID| Information for grid number                                          2
 PW_GRID| Number of the reference grid                                         1
 PW_GRID| Grid distributed over                                    32 processors
 PW_GRID| Real space group dimensions                                    32    1
 PW_GRID| the grid is blocked:                                                NO
 PW_GRID| Cutoff [a.u.]                                                     83.3
 PW_GRID| spherical cutoff:                                                   NO
 PW_GRID|   Bounds   1            -17      17                Points:          35
 PW_GRID|   Bounds   2            -17      17                Points:          35
 PW_GRID|   Bounds   3           -472     472                Points:         945
 PW_GRID| Volume element (a.u.^3)  0.1183E-01     Volume (a.u.^3)     13688.9292
 PW_GRID| Grid span                                                    FULLSPACE
 PW_GRID|   Distribution                         Average         Max         Min
 PW_GRID|   G-Vectors                            36175.8       37275       35035
 PW_GRID|   G-Rays                                1033.6        1065        1001
 PW_GRID|   Real Space Points                    36175.8       66150       33075

 PW_GRID| Information for grid number                                          3
 PW_GRID| Number of the reference grid                                         1
 PW_GRID| Grid distributed over                                    32 processors
 PW_GRID| Real space group dimensions                                     4    8
 PW_GRID| the grid is blocked:                                                NO
 PW_GRID| Cutoff [a.u.]                                                     27.8
 PW_GRID| spherical cutoff:                                                   NO
 PW_GRID|   Bounds   1            -10       9                Points:          20
 PW_GRID|   Bounds   2            -10       9                Points:          20
 PW_GRID|   Bounds   3           -275     274                Points:         550
 PW_GRID| Volume element (a.u.^3)  0.6222E-01     Volume (a.u.^3)     13688.9292
 PW_GRID| Grid span                                                    FULLSPACE
 PW_GRID|   Distribution                         Average         Max         Min
 PW_GRID|   G-Vectors                             6875.0        7040        6740
 PW_GRID|   G-Rays                                 343.8         352         337
 PW_GRID|   Real Space Points                     6875.0        8250        5500

 PW_GRID| Information for grid number                                          4
 PW_GRID| Number of the reference grid                                         1
 PW_GRID| Grid distributed over                                    32 processors
 PW_GRID| Real space group dimensions                                     4    8
 PW_GRID| the grid is blocked:                                                NO
 PW_GRID| Cutoff [a.u.]                                                      9.3
 PW_GRID| spherical cutoff:                                                   NO
 PW_GRID|   Bounds   1             -5       5                Points:          11
 PW_GRID|   Bounds   2             -5       5                Points:          11
 PW_GRID|   Bounds   3           -157     157                Points:         315
 PW_GRID| Volume element (a.u.^3)  0.3591         Volume (a.u.^3)     13688.9292
 PW_GRID| Grid span                                                    FULLSPACE
 PW_GRID|   Distribution                         Average         Max         Min
 PW_GRID|   G-Vectors                             1191.1        1375        1023
 PW_GRID|   G-Rays                                 108.3         125          93
 PW_GRID|   Real Space Points                     1191.1        1890         630

 POISSON| Solver                                                        PERIODIC
 POISSON| Periodicity                                                        XYZ

 *** WARNING in pw_env_methods.F:744 :: The selected periodicities in the ***
 *** sections &CELL and &POISSON do not match                             ***


 RS_GRID| Information for grid number                                          1
 RS_GRID|   Bounds   1            -30      29                Points:          60
 RS_GRID|   Bounds   2            -30      29                Points:          60
 RS_GRID|   Bounds   3           -825     824                Points:        1650
 RS_GRID| Real space distribution over                                 32 groups
 RS_GRID| Real space distribution along direction                              3
 RS_GRID| Border size                                                         55
 RS_GRID|   Distribution                         Average         Max         Min
 RS_GRID|   Planes                                 161.6         162         161

 RS_GRID| Information for grid number                                          2
 RS_GRID|   Bounds   1            -17      17                Points:          35
 RS_GRID|   Bounds   2            -17      17                Points:          35
 RS_GRID|   Bounds   3           -472     472                Points:         945
 RS_GRID| Real space distribution over                                 32 groups
 RS_GRID| Real space distribution along direction                              3
 RS_GRID| Border size                                                         50
 RS_GRID|   Distribution                         Average         Max         Min
 RS_GRID|   Planes                                 129.5         130         129

 RS_GRID| Information for grid number                                          3
 RS_GRID|   Bounds   1            -10       9                Points:          20
 RS_GRID|   Bounds   2            -10       9                Points:          20
 RS_GRID|   Bounds   3           -275     274                Points:         550
 RS_GRID| Real space fully replicated
 RS_GRID| Group size                                                           1

 RS_GRID| Information for grid number                                          4
 RS_GRID|   Bounds   1             -5       5                Points:          11
 RS_GRID|   Bounds   2             -5       5                Points:          11
 RS_GRID|   Bounds   3           -157     157                Points:         315
 RS_GRID| Real space fully replicated
 RS_GRID| Group size                                                           1

 Number of electrons:                                                        224
 Number of occupied orbitals:                                                112
 Number of molecular orbitals:                                               212

 Number of orbital functions:                                                520
 Number of independent orbital functions:                                    520

 Extrapolation method: initial_guess

 Atomic guess: The first density matrix is obtained in terms of atomic orbitals
               and electronic configurations assigned to each atomic kind

 Guess for atomic kind: Bi

 Electronic structure
    Total number of core electrons                                         78.00
    Total number of valence electrons                                       5.00
    Total number of electrons                                              83.00
    Multiplicity                                                   not specified
    S   [  2.00  2.00  2.00  2.00  2.00] 2.00
    P   [  6.00  6.00  6.00  6.00] 3.00
    D   [ 10.00 10.00 10.00]
    F   [ 14.00]


 *******************************************************************************
                  Iteration          Convergence                     Energy [au]
 *******************************************************************************
                          1        0.310360                      -5.208501548731
                          2        0.939106E-01                  -5.289954588180
                          3        0.352502E-02                  -5.296392326107
                          4        0.170410E-02                  -5.296399025644
                          5        0.145861E-02                  -5.296399571118
                          6        0.131705E-02                  -5.296399847127
                          7        0.803612E-06                  -5.296401065353

 Energy components [Hartree]           Total Energy ::           -5.296401065353
                                        Band Energy ::           -1.432121649625
                                     Kinetic Energy ::            1.680284849923
                                   Potential Energy ::           -6.976685915277
                                      Virial (-V/T) ::            4.152085234593
                                        Core Energy ::           -8.314367132257
                                          XC Energy ::           -1.213906855013
                                     Coulomb Energy ::            4.231872921917
                       Total Pseudopotential Energy ::          -10.063261385895
                       Local Pseudopotential Energy ::          -10.059251605014
                    Nonlocal Pseudopotential Energy ::           -0.004009780882
                                        Confinement ::            0.686094037147

 Orbital energies  State     L     Occupation   Energy[a.u.]          Energy[eV]

                       1     0          2.000      -0.504098          -13.717211

                       1     1          3.000      -0.141308           -3.845197


 Total Electron Density at R=0:                                         0.000074

 Guess for atomic kind: Te

 Electronic structure
    Total number of core electrons                                         46.00
    Total number of valence electrons                                       6.00
    Total number of electrons                                              52.00
    Multiplicity                                                   not specified
    S   [  2.00  2.00  2.00  2.00] 2.00
    P   [  6.00  6.00  6.00] 4.00
    D   [ 10.00 10.00]


 *******************************************************************************
                  Iteration          Convergence                     Energy [au]
 *******************************************************************************
                          1        0.440411                      -7.841401693527
                          2        0.193521                      -7.923588902255
                          3        0.411881E-02                  -7.938770849025
                          4        0.434784E-03                  -7.938777606676
                          5        0.264883E-03                  -7.938777654438
                          6        0.193876E-03                  -7.938777667526
                          7        0.182729E-06                  -7.938777682627

 Energy components [Hartree]           Total Energy ::           -7.938777682627
                                        Band Energy ::           -1.840853774692
                                     Kinetic Energy ::            2.417148200641
                                   Potential Energy ::          -10.355925883268
                                      Virial (-V/T) ::            4.284357028883
                                        Core Energy ::          -12.882298154325
                                          XC Energy ::           -1.658562604918
                                     Coulomb Energy ::            6.602083076616
                       Total Pseudopotential Energy ::          -15.369481719254
                       Local Pseudopotential Energy ::          -15.655985948313
                    Nonlocal Pseudopotential Energy ::            0.286504229060
                                        Confinement ::            0.700353642877

 Orbital energies  State     L     Occupation   Energy[a.u.]          Energy[eV]

                       1     0          2.000      -0.530193          -14.427276

                       1     1          4.000      -0.195117           -5.309407


 Total Electron Density at R=0:                                         0.000815
 Re-scaling the density matrix to get the right number of electrons
                  # Electrons              Trace(P)               Scaling factor
                          224               224.000                        1.000


 SCF WAVEFUNCTION OPTIMIZATION

  Step     Update method      Time    Convergence         Total energy    Change
  ------------------------------------------------------------------------------
     1 NoMix/Diag. 0.10E+00    1.9     0.97285913      -286.0404403618 -2.86E+02
     2 Broy./Diag. 0.10E+00    1.8     0.28530028      -286.8620285140 -8.22E-01
     3 Broy./Diag. 0.10E+00    1.5     0.09075293      -286.7410167622  1.21E-01
     4 Broy./Diag. 0.10E+00    1.4     0.17023111      -286.5425319807  1.98E-01
     5 Broy./Diag. 0.10E+00    1.4     0.14594868      -286.3319997371  2.11E-01
     6 Broy./Diag. 0.10E+00    1.4     0.06759811      -286.1927430652  1.39E-01
     7 Broy./Diag. 0.10E+00    1.4     0.07318735      -286.1152593936  7.75E-02
     8 Broy./Diag. 0.10E+00    1.5     0.19961540      -286.0836369445  3.16E-02
     9 Broy./Diag. 0.10E+00    1.7     0.12910768      -286.1425607087 -5.89E-02
    10 Broy./Diag. 0.10E+00    1.4     0.01778410      -286.0053298919  1.37E-01
    11 Broy./Diag. 0.10E+00    1.4     0.02803006      -285.7868015863  2.19E-01
    12 Broy./Diag. 0.10E+00    1.5     0.01705522      -285.6389328772  1.48E-01
    13 Broy./Diag. 0.10E+00    1.3     0.01680079      -285.4990395431  1.40E-01
    14 Broy./Diag. 0.10E+00    1.4     0.00865231      -285.4374250748  6.16E-02
    15 Broy./Diag. 0.10E+00    1.4     0.01009845      -285.3919386858  4.55E-02
    16 Broy./Diag. 0.10E+00    1.4     0.00744899      -285.3387516934  5.32E-02
    17 Broy./Diag. 0.10E+00    1.8     0.00415217      -285.3222397724  1.65E-02
    18 Broy./Diag. 0.10E+00    1.5     0.00626050      -285.3107879599  1.15E-02
    19 Broy./Diag. 0.10E+00    1.6     0.00222500      -285.2996505506  1.11E-02
    20 Broy./Diag. 0.10E+00    1.9     0.00165570      -285.2953480534  4.30E-03
    21 Broy./Diag. 0.10E+00    1.6     0.00211447      -285.2987221672 -3.37E-03
    22 Broy./Diag. 0.10E+00    1.5     0.00080939      -285.2965168100  2.21E-03
    23 Broy./Diag. 0.10E+00    1.4     0.00047607      -285.2913847460  5.13E-03
    24 Broy./Diag. 0.10E+00    1.4     0.00055189      -285.2917286321 -3.44E-04
    25 Broy./Diag. 0.10E+00    1.4     0.00051051      -285.2986677619 -6.94E-03
    26 Broy./Diag. 0.10E+00    1.3     0.00022950      -285.3012800277 -2.61E-03
    27 Broy./Diag. 0.10E+00    1.4     0.00026698      -285.3032510598 -1.97E-03
    28 Broy./Diag. 0.10E+00    1.4     0.00014661      -285.3038911187 -6.40E-04
    29 Broy./Diag. 0.10E+00    1.4     0.00015020      -285.3037377476  1.53E-04
    30 Broy./Diag. 0.10E+00    1.4     0.00011938      -285.3031672525  5.70E-04
    31 Broy./Diag. 0.10E+00    1.3     0.00007732      -285.3026075472  5.60E-04
    32 Broy./Diag. 0.10E+00    1.4     0.00005496      -285.3023718943  2.36E-04
    33 Broy./Diag. 0.10E+00    1.3     0.00003628      -285.3023204603  5.14E-05
    34 Broy./Diag. 0.10E+00    1.3     0.00004071      -285.3019050236  4.15E-04
    35 Broy./Diag. 0.10E+00    1.3     0.00003130      -285.3015817199  3.23E-04
    36 Broy./Diag. 0.10E+00    1.3     0.00003578      -285.3016853945 -1.04E-04
    37 Broy./Diag. 0.10E+00    1.3     0.00001279      -285.3017776698 -9.23E-05
    38 Broy./Diag. 0.10E+00    1.6     0.00002030      -285.3018073372 -2.97E-05
    39 Broy./Diag. 0.10E+00    1.6     0.00001036      -285.3017582984  4.90E-05
    40 Broy./Diag. 0.10E+00    1.4     0.00001471      -285.3016962491  6.20E-05
    41 Broy./Diag. 0.10E+00    1.9     0.00001365      -285.3016147028  8.15E-05
    42 Broy./Diag. 0.10E+00    1.5     0.00001230      -285.3015923750  2.23E-05
    43 Broy./Diag. 0.10E+00    1.5     0.00000529      -285.3015962010 -3.83E-06
    44 Broy./Diag. 0.10E+00    1.4     0.00000911      -285.3015656495  3.06E-05
    45 Broy./Diag. 0.10E+00    1.3     0.00000385      -285.3015171993  4.85E-05
    46 Broy./Diag. 0.10E+00    1.3     0.00000605      -285.3014865586  3.06E-05
    47 Broy./Diag. 0.10E+00    1.3     0.00000411      -285.3015236519 -3.71E-05
    48 Broy./Diag. 0.10E+00    1.3     0.00000371      -285.3015694384 -4.58E-05
    49 Broy./Diag. 0.10E+00    1.4     0.00000292      -285.3015835287 -1.41E-05
    50 Broy./Diag. 0.10E+00    1.4     0.00000336      -285.3015868391 -3.31E-06
    51 Broy./Diag. 0.10E+00    1.4     0.00000225      -285.3015836957  3.14E-06
    52 Broy./Diag. 0.10E+00    1.4     0.00000270      -285.3015771451  6.55E-06
    53 Broy./Diag. 0.10E+00    1.3     0.00000184      -285.3015786203 -1.48E-06
    54 Broy./Diag. 0.10E+00    1.4     0.00000119      -285.3015793943 -7.74E-07
    55 Broy./Diag. 0.10E+00    1.3     0.00000220      -285.3015684106  1.10E-05
    56 Broy./Diag. 0.10E+00    1.3     0.00000125      -285.3015597997  8.61E-06
    57 Broy./Diag. 0.10E+00    1.3     0.00000132      -285.3015624051 -2.61E-06
    58 Broy./Diag. 0.10E+00    1.4     0.00000178      -285.3015791894 -1.68E-05
    59 Broy./Diag. 0.10E+00    1.7     0.00000111      -285.3015888385 -9.65E-06
    60 Broy./Diag. 0.10E+00    1.5     0.00000099      -285.3015926975 -3.86E-06

  *** SCF run converged in    60 steps ***


  Electronic density on regular grids:       -224.0000000001       -0.0000000001
  Core density on regular grids:              223.9999999992       -0.0000000008
  Hard and soft densities (Lebedev):           -0.0000000000       -0.0000000000
  Total Rho_soft + Rho1_hard - Rho1_soft     -224.0000000001
  Total charge density (r-space):              -0.0000000008
  Total Rho_soft + Rho0_soft (g-space):        -0.0000000008

  Overlap energy of the core charge distribution:               0.00000000108123
  Self energy of the core charge distribution:               -610.38704035654632
  Core Hamiltonian energy:                                    121.85377515588004
  Hartree energy:                                             268.14161359015191
  Exchange-correlation energy:                                -64.90934987410917

  GAPW| Exc from hard and soft atomic rho1:                     0.00000000000000
  GAPW| local Eh = 1 center integrals:                          0.00000000000000
  Electronic entropic energy:                                  -0.00059121556995
  Fermi energy:                                                 0.04721979642373

  Total energy:                                              -285.30159269749066

 !-----------------------------------------------------------------------------!
                     Mulliken Population Analysis

 #  Atom  Element  Kind  Atomic population                           Net charge
       1     Bi       1          4.893416                              0.106584
       2     Bi       1          4.894339                              0.105661
       3     Bi       1          4.892154                              0.107846
       4     Bi       1          4.087506                              0.912494
       5     Bi       1          4.962869                              0.037131
       6     Bi       1          4.917118                              0.082882
       7     Bi       1          4.963427                              0.036573
       8     Bi       1          4.892473                              0.107527
       9     Bi       1          4.892861                              0.107139
      10     Bi       1          4.887663                              0.112337
      11     Bi       1          4.892495                              0.107505
      12     Bi       1          4.893103                              0.106897
      13     Bi       1          4.894894                              0.105106
      14     Bi       1          4.911639                              0.088361
      15     Bi       1          4.888132                              0.111868
      16     Bi       1          5.789450                             -0.789450
      17     Te       2          6.590505                             -0.590505
      18     Te       2          6.189147                             -0.189147
      19     Te       2          6.194910                             -0.194910
      20     Te       2          6.214360                             -0.214360
      21     Te       2          6.195429                             -0.195429
      22     Te       2          6.194925                             -0.194925
      23     Te       2          6.190661                             -0.190661
      24     Te       2          6.214408                             -0.214408
      25     Te       2          6.011011                             -0.011011
      26     Te       2          6.009556                             -0.009556
      27     Te       2          5.924712                              0.075288
      28     Te       2          6.008320                             -0.008320
      29     Te       2          5.916695                              0.083305
      30     Te       2          5.923276                              0.076724
      31     Te       2          6.009939                             -0.009939
      32     Te       2          6.010622                             -0.010622
      33     Te       2          6.009897                             -0.009897
      34     Te       2          6.009413                             -0.009413
      35     Te       2          6.009004                             -0.009004
      36     Te       2          5.948899                              0.051101
      37     Te       2          5.643631                              0.356369
      38     Te       2          6.004585                             -0.004585
      39     Te       2          6.013132                             -0.013132
      40     Te       2          6.009423                             -0.009423
 # Total charge                            224.000000                 -0.000000

 !-----------------------------------------------------------------------------!

 !-----------------------------------------------------------------------------!
                           Hirshfeld Charges

  #Atom  Element  Kind  Ref Charge     Population                    Net charge
      1       Bi     1       5.000          4.821                         0.179
      2       Bi     1       5.000          4.822                         0.178
      3       Bi     1       5.000          4.820                         0.180
      4       Bi     1       5.000          4.779                         0.221
      5       Bi     1       5.000          4.803                         0.197
      6       Bi     1       5.000          4.826                         0.174
      7       Bi     1       5.000          4.803                         0.197
      8       Bi     1       5.000          4.820                         0.180
      9       Bi     1       5.000          4.820                         0.180
     10       Bi     1       5.000          4.818                         0.182
     11       Bi     1       5.000          4.820                         0.180
     12       Bi     1       5.000          4.820                         0.180
     13       Bi     1       5.000          4.821                         0.179
     14       Bi     1       5.000          4.824                         0.176
     15       Bi     1       5.000          4.818                         0.182
     16       Bi     1       5.000          4.958                         0.042
     17       Te     2       6.000          6.220                        -0.220
     18       Te     2       6.000          6.171                        -0.171
     19       Te     2       6.000          6.174                        -0.174
     20       Te     2       6.000          6.178                        -0.178
     21       Te     2       6.000          6.174                        -0.174
     22       Te     2       6.000          6.174                        -0.174
     23       Te     2       6.000          6.172                        -0.172
     24       Te     2       6.000          6.178                        -0.178
     25       Te     2       6.000          6.093                        -0.093
     26       Te     2       6.000          6.093                        -0.093
     27       Te     2       6.000          6.108                        -0.108
     28       Te     2       6.000          6.092                        -0.092
     29       Te     2       6.000          6.064                        -0.064
     30       Te     2       6.000          6.108                        -0.108
     31       Te     2       6.000          6.093                        -0.093
     32       Te     2       6.000          6.093                        -0.093
     33       Te     2       6.000          6.093                        -0.093
     34       Te     2       6.000          6.093                        -0.093
     35       Te     2       6.000          6.088                        -0.088
     36       Te     2       6.000          6.054                        -0.054
     37       Te     2       6.000          6.018                        -0.018
     38       Te     2       6.000          6.090                        -0.090
     39       Te     2       6.000          6.094                        -0.094
     40       Te     2       6.000          6.093                        -0.093

  Total Charge                                                            0.000
 !-----------------------------------------------------------------------------!

 KPOINTS| Band Structure Calculation
 KPOINTS| Number of k-point sets                                               1
 KPOINTS| Number of added MOs/bands                                           50
 KPOINTS| Number of k-points in set    1                                     161
 KPOINTS| In units of b-vector [2pi/Bohr]
 KPOINTS| Special point     1          Kd     0.333333     0.333333     0.000000
 KPOINTS| Special point     2       GAMMA     0.000000     0.000000     0.000000
 KPOINTS| Special point     3          Kd     0.333333     0.333333     0.000000
 KPOINTS| Time for k-point line                                           11.462

 ENERGY| Total FORCE_EVAL ( QS ) energy [hartree]           -285.301592697490662

 -------------------------------------------------------------------------------
 -                                                                             -
 -                                DBCSR STATISTICS                             -
 -                                                                             -
 -------------------------------------------------------------------------------
 COUNTER                                    TOTAL       BLAS       SMM       ACC
 flops inhomo. stacks                           0       0.0%      0.0%      0.0%
 flops total                         0.000000E+00       0.0%      0.0%      0.0%
 flops max/rank                      0.000000E+00       0.0%      0.0%      0.0%
 matmuls inhomo. stacks                         0       0.0%      0.0%      0.0%
 matmuls total                                  0       0.0%      0.0%      0.0%
 number of processed stacks                     0       0.0%      0.0%      0.0%
 average stack size                                     0.0       0.0       0.0
 marketing flops                     0.000000E+00
 -------------------------------------------------------------------------------
 -                                                                             -
 -                      DBCSR MESSAGE PASSING PERFORMANCE                      -
 -                                                                             -
 -------------------------------------------------------------------------------
 ROUTINE             CALLS      AVE VOLUME [Bytes]
 MP_Bcast                1                     12.
 MP_Allreduce           19                     21.
 MP_Alltoall        369328                  18315.
 -------------------------------------------------------------------------------

 -------------------------------------------------------------------------------
 -                                                                             -
 -                                DBM STATISTICS                               -
 -                                                                             -
 -------------------------------------------------------------------------------
    M  x    N  x    K                                          COUNT     PERCENT
 -------------------------------------------------------------------------------

 -------------------------------------------------------------------------------
 -                                                                             -
 -                                GRID STATISTICS                              -
 -                                                                             -
 -------------------------------------------------------------------------------
 LP    KERNEL             BACKEND                              COUNT     PERCENT
 4     collocate general  CPU                                5494636      50.40%
 4     integrate general  CPU                                5404560      49.57%
 0     collocate general  CPU                                   2560       0.02%
 0     integrate general  CPU                                   1280       0.01%
 -------------------------------------------------------------------------------

 MEMORY| Estimated peak process memory [MiB]                                 889

 -------------------------------------------------------------------------------
 ----                             MULTIGRID INFO                            ----
 -------------------------------------------------------------------------------
 count for grid        1:          90762          cutoff [a.u.]          250.00
 count for grid        2:         167964          cutoff [a.u.]           83.33
 count for grid        3:         149931          cutoff [a.u.]           27.78
 count for grid        4:          70841          cutoff [a.u.]            9.26
 total gridlevel count  :         479498

 -------------------------------------------------------------------------------
 -                                                                             -
 -                         MESSAGE PASSING PERFORMANCE                         -
 -                                                                             -
 -------------------------------------------------------------------------------

 ROUTINE             CALLS      AVE VOLUME [Bytes]
 MP_Group                6
 MP_Bcast           159530                   3526.
 MP_Allreduce        22479                    444.
 MP_Sync                 4
 MP_Alltoall          1524                4924954.
 MP_SendRecv          3782                  40560.
 MP_ISendRecv         3720                  40560.
 MP_Wait            128095
 MP_comm_split           4
 MP_ISend           131048                  25301.
 MP_IRecv           199088                  16284.
 -------------------------------------------------------------------------------


 -------------------------------------------------------------------------------
 -                                                                             -
 -                           R E F E R E N C E S                               -
 -                                                                             -
 -------------------------------------------------------------------------------
 
 CP2K version 2025.1 (Development Version), the CP2K developers group (2025).
 CP2K is freely available from https://www.cp2k.org/ .
 
 T. D. Kuehne, M. Iannuzzi, M. Del Ben, V. V. Rybkin, P. Seewald, F. Stein, T. 
 Laino, R. Z. Khaliullin, O. Schuett, F. Schiffmann, D. Golze, J. Wilhelm, S. 
 Chulkov, M. H. Bani-Hashemian, V. Weber, U. Borstnik, M. Taillefumier, A. S. 
 Jakobovits, A. Lazzaro, H. Pabst, T. Mueller, R. Schade, M. Guidon, S. 
 Andermatt, N. Holmberg, G. K. Schenter, A. Hehn, A. Bussy, F. Belleflamme, G. 
 Tabacchi, A. Gloess, M. Lass, I. Bethune, C. J. Mundy, C. Plessl, M. Watkins, 
 J. VandeVondele, M. Krack, J. Hutter.
 J. Chem. Phys. 152, 194103 (2020).
 CP2K: An electronic structure and molecular dynamics software package - 
 Quickstep: Efficient and accurate electronic structure calculations.
 https://doi.org/10.1063/5.0007045

 A. Togo, I. Tanaka.
 arXiv, 1808.01590 (2018).
 Spglib : a software library for crystal symmetry search.

 O. Schuett, P. Messmer, J. Hutter, J. VandeVondele.
 Electronic Structure Calculations on Graphics Processing Units, 173-190 (2016).
 GPU-Accelerated Sparse Matrix-Matrix Multiplication for Linear Scaling Density 
 Functional Theory.
 https://doi.org/10.1002/9781118670712.ch8

 A. Heinecke, G. Henry, M. Hutchinson, H. Pabst.
 Proceedings of Intl. Supercomputing Conference, 981-991 (2016).
 LIBXSMM: Accelerating Small Matrix Multiplications by Runtime Code Generation.
 https://doi.org/10.1109/SC.2016.83

 J. Hutter, M. Iannuzzi, F. Schiffmann, J. VandeVondele.
 WIREs Comput Mol Sci. 4, 15-25 (2014).
 CP2K: atomistic simulations of condensed matter systems.
 https://doi.org/10.1002/wcms.1159

 U. Borstnik, J. VandeVondele, V. Weber, J. Hutter.
 Parallel Comput. 40, 47-58 (2014).
 Sparse matrix multiplication: The distributed block-compressed sparse row 
 library.
 https://doi.org/10.1016/j.parco.2014.03.012

 A. Marek, V. Blum, R. Johanni, V. Havu, B. Lang, T. Auckenthaler, A. Heinecke, 
 H. Bungartz, H. Lederer.
 J. Phys. Condens. Matter 26, 213201 (2014).
 The ELPA library: scalable parallel eigenvalue solutions for electronic 
 structure theory and computational science.
 https://doi.org/10.1088/0953-8984/26/21/213201

 J. VandeVondele, J. Hutter.
 J. Chem. Phys. 127, 114105 (2007).
 Gaussian basis sets for accurate calculations on molecular systems in gas and 
 condensed phases.
 https://doi.org/10.1063/1.2770708

 M. Krack.
 Theor. Chem. Acc. 114, 145-152 (2005).
 Pseudopotentials for H to Kr optimized for gradient-corrected 
 exchange-correlation functionals.
 https://doi.org/10.1007/s00214-005-0655-y

 M. Frigo, S. G. Johnson.
 Proc. IEEE 93, 216-231 (2005).
 The design and implementation of FFTW3.
 https://doi.org/10.1109/JPROC.2004.840301

 M. Krack, M. Parrinello.
 Phys. Chem. Chem. Phys. 2, 2105-2112 (2000).
 All-electron ab-initio molecular dynamics.
 https://doi.org/10.1039/b001167n

 G. Lippert, J. Hutter, M. Parrinello.
 Theor. Chem. Acc. 103, 124-140 (1999).
 The Gaussian and augmented-plane-wave density functional method for ab initio 
 molecular dynamics simulations.
 https://doi.org/10.1007/s002140050523

 C. Hartwigsen, S. Goedecker, J. Hutter.
 Phys. Rev. B 58, 3641-3662 (1998).
 Relativistic separable dual-space Gaussian pseudopotentials from H to Rn.
 https://doi.org/10.1103/PhysRevB.58.3641

 S. Goedecker, M. Teter, J. Hutter.
 Phys. Rev. B 54, 1703-1710 (1996).
 Separable dual-space Gaussian pseudopotentials.
 https://doi.org/10.1103/PhysRevB.54.1703

 J. P. Perdew, K. Burke, M. Ernzerhof.
 Phys. Rev. Lett. 77, 3865-3868 (1996).
 Generalized gradient approximation made simple.
 https://doi.org/10.1103/PhysRevLett.77.3865


 -------------------------------------------------------------------------------
 -                                                                             -
 -                                T I M I N G                                  -
 -                                                                             -
 -------------------------------------------------------------------------------
 SUBROUTINE                       CALLS  ASD         SELF TIME        TOTAL TIME
                                MAXIMUM       AVERAGE  MAXIMUM  AVERAGE  MAXIMUM
 CP2K                                 1  1.0    0.046    0.059  101.444  101.446
 qs_energies                          1  2.0    0.008    0.058  101.132  101.182
 scf_env_do_scf                       1  3.0    0.001    0.002   88.025   88.030
 scf_env_do_scf_inner_loop           60  4.0    0.007    0.011   88.024   88.030
 do_general_diag_kp                  61  6.0    0.054    0.060   87.669   87.699
 qs_scf_new_mos_kp                   60  5.0    0.000    0.000   76.272   76.301
 cp_cfm_geeig                       701  6.3    0.005    0.006   47.832   48.147
 cp_cfm_heevd                       701  7.3    0.001    0.001   41.075   41.445
 cp_cfm_heevd_base                  701  8.3   41.075   41.444   41.075   41.444
 dbcsr_complete_redistribute      26909  8.2    1.563    1.862   11.087   12.536
 mp_alltoall_i22                  63102  8.8    8.370   11.802    8.370   11.802
 kpoint_density_transform            60  7.0    0.025    0.027   11.099   11.136
 copy_dbcsr_to_fm                 18269  6.9    0.099    0.103   10.031   10.530
 dbcsr_desymmetrize_deep          36193  7.4    0.434    0.526    7.032    9.099
 rskp_transform                    8962  6.9    3.643    6.834    3.643    6.834
 cp_fm_start_copy_general         26564  7.3    1.097    1.334    6.626    6.766
 qs_ks_update_qs_env                 60  5.0    0.000    0.000    6.102    6.118
 rebuild_ks_matrix                   60  6.0    0.000    0.000    5.886    5.901
 qs_ks_build_kohn_sham_matrix        60  7.0    0.015    0.024    5.886    5.901
 copy_fm_to_dbcsr                  8640  8.0    0.030    0.032    4.569    5.632
 mp_allgather_i                   53128  8.3    4.915    5.034    4.915    5.034
 fft_wrap_pw1pw2                   1145 10.0    0.005    0.005    3.631    3.660
 kpoint_set_mo_occupation            60  7.0    0.808    0.814    3.066    3.657
 fft_wrap_pw1pw2_250                782 11.3    0.277    0.283    3.444    3.489
 cp_cfm_triangular_multiply        2103  7.3    3.317    3.382    3.317    3.382
 transform_dmat                    4320  8.0    1.807    3.333    1.807    3.333
 cp_fm_finish_copy_general        11444  7.6    3.050    3.273    3.062    3.286
 qs_rho_update_rho_low               61  5.0    0.001    0.001    3.202    3.217
 calculate_rho_elec                  61  6.0    0.043    0.046    3.176    3.180
 fft3d_ps                          1145 12.0    1.044    1.118    3.023    3.067
 mp_sum_dm3                          60  8.0    2.258    2.845    2.258    2.845
 sum_up_and_integrate                60  8.0    0.004    0.007    2.384    2.455
 integrate_v_rspace                  60  9.0    0.001    0.002    2.377    2.451
 transfer_rs2pw                     306  8.4    0.002    0.003    2.112    2.385
 mp_waitany                       13140 11.5    2.041    2.357    2.041    2.357
 kpoint_density_matrices             60  7.0    0.011    0.013    2.273    2.294
 qs_vxc_create                       60  8.0    0.002    0.003    2.270    2.271
 xc_vxc_pw_create                    60  9.0    0.052    0.058    2.269    2.270
 parallel_gemm_fm                  2160  8.0    0.001    0.002    2.234    2.261
 parallel_gemm_fm_cosma            2160  9.0    2.232    2.260    2.232    2.260
 transfer_rs2pw_250                 123 10.0    0.115    0.120    1.908    2.189
 mp_alltoall_z22v                  1145 14.0    1.778    2.101    1.778    2.101
 mp_cart_sub                      36542  8.9    2.039    2.044    2.039    2.044
 -------------------------------------------------------------------------------

 The number of warnings for this run is : 1
 
 -------------------------------------------------------------------------------
  **** **** ******  **  PROGRAM ENDED AT                 2025-05-07 16:37:31.860
 ***** ** ***  *** **   PROGRAM RAN ON                     n2cn0832.ab2021.local
 **    ****   ******    PROGRAM RAN BY                                  metdyn06
 ***** **    ** ** **   PROGRAM PROCESS ID                               3577046
  **** **  *******  **  PROGRAM STOPPED IN /scratch/hpc-prf-metdyn/metdyn06_Bibe
                                           k/Research/cp2k/bi2te3_final/KGKp/den
                                           se-grid
